
 Primary working directories    : /scratch/mdavis/molpro_step_2022-08-17_17_14_36/molpro.sULH6JK2vJ
 Secondary working directories  : /scratch/mdavis/molpro_step_2022-08-17_17_14_36/molpro.sULH6JK2vJ
 Wavefunction directory         : /home/mdavis/f12eom_optimizer/tests/slurm/./
 Main file repository           : /scratch/mdavis/molpro_step_2022-08-17_17_14_36/molpro.sULH6JK2vJ/

 id        : olemiss

 Nodes     nprocs
 node17       1

 Using customized tuning parameters: mindgm=1; mindgv=20; mindgc=4; mindgr=1; noblas=0; minvec=7
 default implementation of scratch files=df  


 Variables initialized (945), CPU time= 0.00 sec
 ***,part of geometry opt run
 memory, 2000.0, m;
 gthresh,energy=1.d-12,zero=1.d-22,oneint=1.d-22,twoint=1.d-22;
 gthresh,optgrad=1.d-8,optstep=1.d-8;
 nocompress;
 bohr;
 geometry={
      3
 Fragment 1
     H  -1.5723805990   1.7171943550   0.0000000000
     C   0.4131955562   0.9931325444   0.0000000000
     F   0.2805377773  -1.3900470495   0.0000000000
      }
 
 set,charge=0
 set,spin=0
 basis=vdz-f12
 hf,maxit=500;wf,charge=0,spin=0;accu,20;
 ccsd(t)-f12,maxit=250;wf,charge=0,spin=0;orbital,IGNORE_ERROR;
 ee(1)=energy(2)
 forces,varsav
 SHOW[f18.12],ee(1)
 SHOW[f18.12],GRADX
 SHOW[f18.12],GRADY
 SHOW[f18.12],GRADZ
 Commands  initialized (802), CPU time= 0.01 sec, 659 directives.
 Default parameters read. Elapsed time= 0.10 sec

 Checking input...
 Passed
1


                                         ***  PROGRAM SYSTEM MOLPRO  ***
                                       Copyright, TTI GmbH Stuttgart, 2015
                                    Version 2020.1 linked Oct  6 2020 12:04:11


 **********************************************************************************************************************************
 LABEL *   part of geometry opt run                                                      
  64 bit serial version                                                                  DATE: 17-Aug-22          TIME: 17:14:37  
 **********************************************************************************************************************************

 SHA1:             8c27446f6450a7499e38f603e13c65f775101d37
 **********************************************************************************************************************************

 Memory per process:      2000 MW
 Total memory per node:   2000 MW

 GA preallocation disabled
 GA check disabled

 Variable memory set to 2000.0 MW


 THRESHOLDS:

 ZERO    =  1.00D-22  ONEINT  =  1.00D-22  TWOINT  =  1.00D-22  PREFAC  =  1.00D-14  XXXXXX  =  1.00D-09  EORDER  =  1.00D-04
 ENERGY  =  1.00D-12  ETEST   =  0.00D+00  EDENS   =  0.00D+00  THRDEDEF=  1.00D-06  GRADIENT=  1.00D-05  STEP    =  1.00D-03
 ORBITAL =  1.00D-05  CIVEC   =  1.00D-05  COEFF   =  1.00D-04  PRINTCI =  5.00D-02  PUNCHCI =  9.90D+01  OPTGRAD =  3.00D-04
 OPTENERG=  1.00D-06  OPTSTEP =  3.00D-04  THRGRAD =  1.00D-10  COMPRESS=  1.00D-11  VARMIN  =  1.00D-07  VARMAX  =  1.00D-03
 THRDOUB =  0.00D+00  THRDIV  =  1.00D-05  THRRED  =  1.00D-07  THRPSP  =  1.00D+00  THRDC   =  1.00D-10  THRCS   =  1.00D-10
 THRNRM  =  1.00D-08  THREQ   =  0.00D+00  THRDE   =  1.00D+00  THRREF  =  1.00D-05  SPARFAC =  1.00D+00  THRDLP  =  1.00D-07
 THRDIA  =  1.00D-10  THRDLS  =  1.00D-07  THRGPS  =  0.00D+00  THRKEX  =  0.00D+00  THRDIS  =  2.00D-01  THRVAR  =  1.00D-10
 THRLOC  =  1.00D-06  THRGAP  =  1.00D-06  THRLOCT = -1.00D+00  THRGAPT = -1.00D+00  THRORB  =  1.00D-06  THRMLTP =  0.00D+00
 THRCPQCI=  1.00D-10  KEXTA   =  0.00D+00  THRCOARS=  0.00D+00  SYMTOL  =  1.00D-06  GRADTOL =  1.00D-06  THROVL  =  1.00D-08
 THRORTH =  1.00D-08  GRID    =  1.00D-06  GRIDMAX =  1.00D-03  DTMAX   =  0.00D+00  THROCCDE=  1.00D-01  THROCCDE=  1.00D-01
 THRPRINT=  2.50D-01


 THRESHOLDS:

 ZERO    =  1.00D-22  ONEINT  =  1.00D-22  TWOINT  =  1.00D-22  PREFAC  =  1.00D-14  XXXXXX  =  1.00D-09  EORDER  =  1.00D-04
 ENERGY  =  1.00D-12  ETEST   =  0.00D+00  EDENS   =  0.00D+00  THRDEDEF=  1.00D-06  GRADIENT=  1.00D-05  STEP    =  1.00D-03
 ORBITAL =  1.00D-05  CIVEC   =  1.00D-05  COEFF   =  1.00D-04  PRINTCI =  5.00D-02  PUNCHCI =  9.90D+01  OPTGRAD =  1.00D-08
 OPTENERG=  1.00D-06  OPTSTEP =  1.00D-08  THRGRAD =  1.00D-10  COMPRESS=  1.00D-11  VARMIN  =  1.00D-07  VARMAX  =  1.00D-03
 THRDOUB =  0.00D+00  THRDIV  =  1.00D-05  THRRED  =  1.00D-07  THRPSP  =  1.00D+00  THRDC   =  1.00D-10  THRCS   =  1.00D-10
 THRNRM  =  1.00D-08  THREQ   =  0.00D+00  THRDE   =  1.00D+00  THRREF  =  1.00D-05  SPARFAC =  1.00D+00  THRDLP  =  1.00D-07
 THRDIA  =  1.00D-10  THRDLS  =  1.00D-07  THRGPS  =  0.00D+00  THRKEX  =  0.00D+00  THRDIS  =  2.00D-01  THRVAR  =  1.00D-10
 THRLOC  =  1.00D-06  THRGAP  =  1.00D-06  THRLOCT = -1.00D+00  THRGAPT = -1.00D+00  THRORB  =  1.00D-06  THRMLTP =  0.00D+00
 THRCPQCI=  1.00D-10  KEXTA   =  0.00D+00  THRCOARS=  0.00D+00  SYMTOL  =  1.00D-06  GRADTOL =  1.00D-06  THROVL  =  1.00D-08
 THRORTH =  1.00D-08  GRID    =  1.00D-06  GRIDMAX =  1.00D-03  DTMAX   =  0.00D+00  THROCCDE=  1.00D-01  THROCCDE=  1.00D-01
 THRPRINT=  2.50D-01


 Input parameters for SORTINT:

 COMPRESS =    0.000000
 C_FINAL  =    1.000000
 DEBUG    =   -1.000000
 C_SORT1  =    0.000000
 C_SEWARD =    0.000000
 THRESH   =    0.000000
 IO       =  molpro                                                                                                                          
 SPRI     =    0.000000
 ZUNIT=BOHR


 Geometry recognized as XYZ

 SETTING CHARGE         =     0.00000000D+00                                  
 SETTING SPIN           =     0.00000000D+00                                  
 SETTING BASIS          =    VDZ-F12


 Recomputing integrals since basis changed


 Using spherical harmonics

 Library entry H      S cc-pVDZ-F12          selected for orbital group  1
 Library entry H      P cc-pVDZ-F12          selected for orbital group  1
 Library entry C      S cc-pVDZ-F12          selected for orbital group  2
 Library entry C      P cc-pVDZ-F12          selected for orbital group  2
 Library entry C      D cc-pVDZ-F12          selected for orbital group  2
 Library entry F      S cc-pVDZ-F12          selected for orbital group  3
 Library entry F      P cc-pVDZ-F12          selected for orbital group  3
 Library entry F      D cc-pVDZ-F12          selected for orbital group  3


 PROGRAM * SEWARD (Integral evaluation for generally contracted gaussian basis sets)     Author: Roland Lindh, 1990

 Geometry written to block  1 of record 700


 Point group  Cs  



 ATOMIC COORDINATES

 NR  ATOM    CHARGE       X              Y              Z

   1  H       1.00   -1.572380599    1.717194355    0.000000000
   2  C       6.00    0.413195556    0.993132544    0.000000000
   3  F       9.00    0.280537777   -1.390047049    0.000000000

 Bond lengths in Bohr (Angstrom)

 1-2  2.113475378  2-3  2.386868883
     ( 1.118403006)     ( 1.263076618)

 Bond angles

  1-2-3  106.84889525

 NUCLEAR CHARGE:                   16
 NUMBER OF PRIMITIVE AOS:          93
 NUMBER OF SYMMETRY AOS:           89
 NUMBER OF CONTRACTIONS:           69   (   49A'  +   20A"  )
 NUMBER OF INNER CORE ORBITALS:     0   (    0A'  +    0A"  )
 NUMBER OF OUTER CORE ORBITALS:     2   (    2A'  +    0A"  )
 NUMBER OF VALENCE ORBITALS:        9   (    7A'  +    2A"  )


 NUCLEAR REPULSION ENERGY   27.95042810

 Eigenvalues of metric

         1 0.147E-02 0.296E-02 0.322E-02 0.330E-02 0.387E-02 0.468E-02 0.470E-02 0.906E-02
         2 0.330E-02 0.468E-02 0.774E-01 0.921E-01 0.133E+00 0.165E+00 0.244E+00 0.382E+00


 Contracted 2-electron integrals neglected if value below      1.0D-22

        1426049. INTEGRALS WRITTEN OUT IN     349 BLOCKS ON RECORD 1290 OF FILE 1


 NUMBER OF SORTED TWO-ELECTRON INTEGRALS:    1544830.     BUFFER LENGTH:  32768
 NUMBER OF SEGMENTS:   1  SEGMENT LENGTH:    1544830      RECORD LENGTH: 524288

 Memory used in sort:       2.10 MW

 SORT1 READ     1426049. AND WROTE     1455925. INTEGRALS IN      5 RECORDS. CPU TIME:     0.03 SEC, REAL TIME:     0.04 SEC
 SORT2 READ     1455925. AND WROTE     1544830. INTEGRALS IN      1 RECORDS. CPU TIME:     0.05 SEC, REAL TIME:     0.06 SEC

 FILE SIZES:   FILE 1:    53.0 MBYTE,  FILE 4:    21.0 MBYTE,   TOTAL:     74.0 MBYTE

 OPERATOR DM      FOR CENTER  0  COORDINATES:    0.000000    0.000000    0.000000


 **********************************************************************************************************************************
 DATASETS  * FILE   NREC   LENGTH (MB)   RECORD NAMES
              1      19       42.18       500      610      700      900      950      970     1000      129      960     1100   
                                          VAR    BASINP    GEOM    SYMINP    ZMAT    AOBASIS   BASIS     P2S    ABASIS      S 
                                         1400     1410     1200     1210     1080     1600     1650     1300     1700   
                                           T        V       H0       H01     AOSYM     SMH    MOLCAS    ERIS     OPER   

 PROGRAMS   *        TOTAL       INT
 CPU TIMES  *         1.05      0.91
 REAL TIME  *         2.64 SEC
 DISK USED  *        74.32 MB
 **********************************************************************************************************************************


 PROGRAM * RHF-SCF (CLOSED SHELL)       Authors: W. Meyer, H.-J. Werner


 NUMBER OF ELECTRONS:       8+    8-
 CONVERGENCE THRESHOLDS:    1.00E-10 (Density)    1.00E-13 (Energy)
 MAX. NUMBER OF ITERATIONS:      500
 INTERPOLATION TYPE:            DIIS
 INTERPOLATION STEPS:              2 (START)      1 (STEP)
 LEVEL SHIFTS:                  0.00 (CLOSED)  0.00 (OPEN) 



 Orbital guess generated from atomic densities. Full valence occupancy:    9   2

 Molecular orbital dump at record        2100.2

 Initial occupancy:   7   1

 ITERATION    DDIFF          GRAD             ENERGY        2-EL.EN.            DIPOLE MOMENTS         DIIS   ORB.
    1      0.000D+00      0.000D+00      -137.78138641    158.281199   -0.71092   -0.11218    0.00000    0    start
    2      0.000D+00      0.990D-02      -137.80610358    159.512484   -0.66712   -0.11209    0.00000    1    diag
    3      0.134D-01      0.328D-02      -137.80854333    159.665855   -0.64328   -0.01477    0.00000    2    diag
    4      0.359D-02      0.104D-02      -137.80881839    159.493424   -0.64105   -0.01743    0.00000    3    diag
    5      0.106D-02      0.321D-03      -137.80886488    159.563330   -0.64084   -0.00612    0.00000    4    diag
    6      0.393D-03      0.743D-04      -137.80886975    159.563315   -0.64032   -0.00371    0.00000    5    diag
    7      0.140D-03      0.237D-04      -137.80887023    159.563893   -0.64043   -0.00343    0.00000    6    diag
    8      0.519D-04      0.491D-05      -137.80887024    159.563723   -0.64042   -0.00349    0.00000    7    diag
    9      0.106D-04      0.890D-06      -137.80887024    159.563744   -0.64044   -0.00351    0.00000    8    diag
   10      0.205D-05      0.188D-06      -137.80887024    159.563742   -0.64044   -0.00352    0.00000    9    orth
   11      0.527D-06      0.470D-07      -137.80887024    159.563741   -0.64044   -0.00352    0.00000    9    diag
   12      0.134D-06      0.101D-07      -137.80887024    159.563741   -0.64044   -0.00352    0.00000    9    diag
   13      0.224D-07      0.230D-08      -137.80887024    159.563741   -0.64044   -0.00352    0.00000    9    diag
   14      0.501D-08      0.594D-09      -137.80887024    159.563741   -0.64044   -0.00352    0.00000    9    diag
   15      0.137D-08      0.125D-09      -137.80887024    159.563741   -0.64044   -0.00352    0.00000    9    diag
   16      0.168D-09      0.390D-10      -137.80887024    159.563741   -0.64044   -0.00352    0.00000    9    diag
   17      0.640D-10      0.674D-11      -137.80887024    159.563741   -0.64044   -0.00352    0.00000    0    orth

 Final occupancy:   7   1

 !RHF STATE  1.1 Energy              -137.808870244399
 Nuclear energy                        27.95042810
 One-electron energy                 -245.54116861
 Two-electron energy                   79.78187027
 Virial quotient                       -1.00018037
 !RHF STATE  1.1 Dipole moment         -0.64043967    -0.00352322     0.00000000
 Dipole moment /Debye                  -1.62772864    -0.00895455     0.00000000

 Orbital energies:

         1.1          2.1          3.1          4.1          5.1          6.1          7.1          8.1          9.1
    -26.373638   -11.362385    -1.713516    -0.941557    -0.785549    -0.681904    -0.395769     0.069873     0.082625

         1.2          2.2          3.2
     -0.734396     0.048356     0.129054


 HOMO      7.1    -0.395769 =     -10.7694eV
 LUMO      2.2     0.048356 =       1.3158eV
 LUMO-HOMO         0.444126 =      12.0853eV


 **********************************************************************************************************************************
 DATASETS  * FILE   NREC   LENGTH (MB)   RECORD NAMES
              1      19       42.18       500      610      700      900      950      970     1000      129      960     1100   
                                          VAR    BASINP    GEOM    SYMINP    ZMAT    AOBASIS   BASIS     P2S    ABASIS      S 
                                         1400     1410     1200     1210     1080     1600     1650     1300     1700   
                                           T        V       H0       H01     AOSYM     SMH    MOLCAS    ERIS     OPER   

              2       4        2.84       700     1000      520     2100   
                                         GEOM     BASIS   MCVARS     RHF  

 PROGRAMS   *        TOTAL    HF-SCF       INT
 CPU TIMES  *         1.31      0.26      0.91
 REAL TIME  *         2.96 SEC
 DISK USED  *        74.32 MB
 **********************************************************************************************************************************


 PROGRAM * CCSD (Closed-shell coupled cluster)     Authors: C. Hampel, H.-J. Werner, 1991, M. Deegan, P.J. Knowles, 1992

                                  CCSD-F12 implementation by  H.-J. Werner, 2007

                   Density fitting integral evaluation by F.R. Manby, 2003,2007, G. Knizia, 2010


 Basis set AUG-CC-PVDZ/JKFIT generated.  Number of basis functions:   204 
 Basis set CC-PVDZ-F12/OPTRI generated.  Number of basis functions:   154 
 Basis set AUG-CC-PVDZ/MP2FIT generated. Number of basis functions:   167 

 Convergence thresholds:  THRVAR = 1.00D-16  THRDEN = 1.00D-12

 CCSD(T)     terms to be evaluated (factor= 1.000)


 Number of core orbitals:           2 (   2   0 )
 Number of closed-shell orbitals:   6 (   5   1 )
 Number of external orbitals:      61 (  42  19 )

 Molecular orbitals read from record     2100.2  Type=RHF/CANONICAL (state 1.1)

 MP2-F12 correlation treatment (H.-J. Werner, 2006)
 ==================================================

 Using MP2-F12 with ansatz 3C(FIX)

 Using projected zeroth-order Hamiltonian (+Z)

 FOCKRIB=T FOCKRIC=T FOCKRIP=T CABSP=T CABSA=T CABSK=T CABSF=T GBC=F EBC=F DMAT=T NOFIK=T NOPAO=1 SOLVE=-1  USEPAO=0
 EXCH_A= T EXCH_B= F EXCH_C= F EXCH_P= F

 Geminal basis:    OPTFULL  GEM_TYPE=SLATER  BETA=1.0  NGEM=6

 Optimizing Gaussian exponents for each gem_beta

 Geminal optimization for beta= 1.0000
 Weight function:   m=0, omega= 1.4646

 Augmented Hessian optimization of geminal fit. Trust ratio= 0.40000
 Convergence reached after   2 iterations. Final gradient= 8.66D-16, Step= 4.23D-06, Delta= 1.28D-09

 Alpha:                 0.19532     0.81920     2.85917     9.50073    35.69989   197.79328
 Coeff:                 0.27070     0.30552     0.18297     0.10986     0.06810     0.04224


 Symmetry turned off. Reference energy:       -137.808870244399

 All pairs explicitly correlated. Number of r12-pairs:           21

 Excluding core orbitals from MO domains

 AO(A)-basis ORBITAL           loaded. Number of functions:      69
 RI(R)-basis CC-PVDZ-F12/OPTRI loaded. Number of functions:     154
 DF-basis AUG-CC-PVDZ/JKFIT    loaded. Number of functions:     204

 Screening thresholds:   THRAO=  1.00D-10  THRMO=  1.00D-10  THRPROD=  1.00D-10
                         THRSW=  1.00D-07  THROV=  1.00D-12  THRAOF12= 1.00D-08

 CPU time for Fock operators                      0.91 sec

 Construction of ABS:
 Smallest eigenvalue of S          3.43E-03  (threshold= 1.00E-08)
 Ratio eigmin/eigmax               7.20E-04  (threshold= 1.00E-09)
 Smallest eigenvalue of S kept     3.43E-03  (threshold= 3.43E-03, 0 functions deleted, 154 kept)

 Construction of CABS:
 Smallest eigenvalue of S          9.63E-06  (threshold= 1.00E-08)
 Ratio eigmin/eigmax               9.63E-06  (threshold= 1.00E-09)
 Smallest eigenvalue of S kept     9.63E-06  (threshold= 9.63E-06, 0 functions deleted, 154 kept)

 CPU time for CABS singles                        0.01 sec

 CABS-singles contribution of  -0.00663964 patched into reference energy.
 New reference energy        -137.81550989

 AO(A)-basis ORBITAL           loaded. Number of functions:      69
 RI(R)-basis CC-PVDZ-F12/OPTRI loaded. Number of functions:     154
 DF-basis AUG-CC-PVDZ/MP2FIT   loaded. Number of functions:     167

 Screening thresholds:   THRAO=  1.00D-10  THRMO=  1.00D-10  THRPROD=  1.00D-10
                         THRSW=  1.00D-07  THROV=  1.00D-12  THRAOF12= 1.00D-08

 CPU time for 3-index integral evaluation         0.38 sec
 CPU time for first  half transformation          0.03 sec ( 5065.5 MFLOP/sec)
 CPU time for second half transformation          0.01 sec (  774.3 MFLOP/sec)
 CPU time for tilde quantities                    0.01 sec (10307.8 MFLOP/sec)
 CPU time for assembly                            0.03 sec (25829.3 MFLOP/sec)
 CPU time for tranop_f12                          0.05 sec (20899.9 MFLOP/sec)
 CPU time for f12 integrals (total)               1.22 sec, Elapsed time:      1.27 sec
 CPU time for f12 matrices (total)                0.01 sec, Elapsed time:      0.10 sec

 Diagonal F12 approximation with fixed coefficients:  TSING= 0.500,  TTRIP= 0.250 (scaled by -1/beta)

 DF-MP2-F12 energy corrections:
 ==============================
 Approx.                                    Singlet             Triplet             Total
 DF-MP2-F12/3*C(DX,FIX)                -0.078385961529     -0.016373586021     -0.094759547550
 DF-MP2-F12/3*C(FIX)                   -0.069030824223     -0.015374925999     -0.084405750222
 DF-MP2-F12/3C(FIX)                    -0.069718354640     -0.016179247171     -0.085897601811

 DF-MP2-F12 correlation energies:
 ================================
 Approx.                                    Singlet             Triplet             Ecorr            Total Energy
 DF-MP2                                -0.222409269810     -0.131284098445     -0.353693368255   -138.169203256737
 DF-MP2-F12/3*C(DX,FIX)                -0.300795231339     -0.147657684466     -0.448452915805   -138.263962804288
 DF-MP2-F12/3*C(FIX)                   -0.291440094033     -0.146659024444     -0.438099118477   -138.253609006959
 DF-MP2-F12/3C(FIX)                    -0.292127624450     -0.147463345616     -0.439590970065   -138.255100858548

 SCS-DF-MP2 energies (F_SING= 1.20000  F_TRIP= 0.62222  F_PARALLEL= 0.33333):
 ============================================================================
 SCS-DF-MP2                            -0.348579007249   -138.164088895731
 SCS-DF-MP2-F12/3*C(DX,FIX)            -0.452830170163   -138.268340058646
 SCS-DF-MP2-F12/3*C(FIX)               -0.440982616938   -138.256492505420
 SCS-DF-MP2-F12/3C(FIX)                -0.442308119945   -138.257818008427

 Symmetry restored.
 Symmetry transformation completed.

 Number of N-1 electron functions:               6
 Number of N-2 electron functions:              21
 Number of singly external CSFs:               229
 Number of doubly external CSFs:             35788
 Total number of CSFs:                       36018

 Length of J-op  integral file:              15.24 MB
 Length of K-op  integral file:              18.55 MB
 Length of 3-ext integral record:             0.00 MB

 Memory could be reduced to 1.16 Mwords without degradation in triples

 Integral transformation finished. Total CPU:   0.03 sec, npass=  1  Memory used:   0.52 MW

 Reference energy:                   -137.81550989

 Adding F12 terms to K(Cij), methodcc=6,  factor= 1.0

 ITER.      SQ.NORM     CORR.ENERGY   TOTAL ENERGY   ENERGY CHANGE        DEN1      VAR(S)    VAR(P)  DIIS     TIME  TIME/IT
   1      1.09092994    -0.36025740  -138.17576729    -0.00646870     0.00467530  0.24D-02  0.21D-02  1  1     2.29     0.05
   2      1.10002917    -0.36098656  -138.17649645    -0.00072916    -0.00881231  0.74D-04  0.48D-03  2  2     2.34     0.05
   3      1.10607200    -0.36173764  -138.17724753    -0.00075108    -0.00241094  0.79D-04  0.78D-04  3  3     2.38     0.05
   4      1.10972041    -0.36192207  -138.17743195    -0.00018443    -0.00125200  0.59D-05  0.21D-04  4  4     2.43     0.05
   5      1.11164643    -0.36196847  -138.17747836    -0.00004640    -0.00032771  0.66D-06  0.40D-05  5  5     2.48     0.05
   6      1.11237157    -0.36196513  -138.17747502     0.00000334    -0.00004995  0.14D-06  0.63D-06  6  6     2.53     0.05
   7      1.11252533    -0.36197017  -138.17748006    -0.00000504    -0.00001331  0.71D-07  0.79D-07  6  2     2.58     0.05
   8      1.11253245    -0.36197168  -138.17748157    -0.00000151     0.00000568  0.89D-08  0.12D-07  6  1     2.63     0.05
   9      1.11253468    -0.36197241  -138.17748229    -0.00000072     0.00000022  0.27D-08  0.15D-08  6  4     2.69     0.06
  10      1.11253446    -0.36197276  -138.17748265    -0.00000035     0.00000055  0.27D-09  0.23D-09  6  3     2.74     0.06
  11      1.11253278    -0.36197276  -138.17748265    -0.00000000     0.00000015  0.58D-10  0.29D-10  6  6     2.79     0.06
  12      1.11253289    -0.36197280  -138.17748269    -0.00000004     0.00000011  0.66D-11  0.42D-11  6  5     2.83     0.06
  13      1.11253270    -0.36197280  -138.17748269    -0.00000001     0.00000004  0.16D-11  0.93D-12  6  2     2.88     0.06
  14      1.11253256    -0.36197281  -138.17748270    -0.00000001     0.00000003  0.17D-12  0.25D-12  6  1     2.93     0.06
  15      1.11253243    -0.36197281  -138.17748270    -0.00000000     0.00000001  0.18D-13  0.55D-13  6  4     2.98     0.06
  16      1.11253236    -0.36197281  -138.17748270    -0.00000000     0.00000001  0.33D-14  0.14D-13  6  3     3.02     0.06
  17      1.11253233    -0.36197281  -138.17748270    -0.00000000     0.00000001  0.22D-14  0.19D-14  6  6     3.08     0.06
  18      1.11253232    -0.36197281  -138.17748270     0.00000000     0.00000000  0.34D-15  0.25D-15  6  5     3.13     0.06
  19      1.11253232    -0.36197281  -138.17748270     0.00000000    -0.00000000  0.12D-15  0.44D-16  6  2     3.18     0.06
  20      1.11253233    -0.36197281  -138.17748270     0.00000000    -0.00000000  0.98D-17  0.88D-17  6  1     3.22     0.06
  21      1.11253233    -0.36197281  -138.17748270     0.00000000    -0.00000000  0.34D-17  0.17D-17  6  4     3.27     0.06
  22      1.11253233    -0.36197281  -138.17748270     0.00000000    -0.00000000  0.61D-18  0.33D-18  6  3     3.32     0.06
  23      1.11253233    -0.36197281  -138.17748270     0.00000000     0.00000000  0.13D-18  0.86D-19  6  6     3.37     0.06
  24      1.11253233    -0.36197281  -138.17748270     0.00000000     0.00000000  0.19D-19  0.31D-19  6  5     3.42     0.06
  25      1.11253233    -0.36197281  -138.17748270     0.00000000    -0.00000000  0.28D-20  0.11D-19  6  2     3.47     0.06

 Norm of t1 vector:      0.07540485      S-energy:     0.00000000      T1 diagnostic:  0.01539195
                                                                       D1 diagnostic:  0.04477340

 Adding energy correction from Wij-K(Fij), methodcc=6  factor= 1.0

  CCSD correlation energy              -0.361972812609
  MP2-F12 correction (uncoupled)       -0.081025965147
  C*T doubles correction               -0.002733848313
  f12b correction                       0.010113818732


 Total CPU time for triples:      0.26 sec


 RESULTS
 =======

  Reference energy                   -137.808870244399
  F12 singles correction               -0.006639644083

 F12 singles corrections added to reference energy

  New reference energy               -137.815509888482

  F12a singlet correction              -0.068313568189
  F12a triplet correction              -0.015446245272
  F12a total correction                -0.083759813461

 F12a corrections for ansatz F12/3C(FIX) added to CCSD energy

  CCSD-F12a singlet pair energy        -0.311820522619
  CCSD-F12a triplet pair energy        -0.133912103452
  CCSD-F12a correlation energy         -0.445732626070

  Triples (T) contribution             -0.012083390211
  Total correlation energy             -0.457816016280

  CCSD-F12a total energy             -138.261242514552
  CCSD[T]-F12a energy                -138.274303421294
  CCSD-T-F12a energy                 -138.272995078924
 !CCSD(T)-F12a total energy          -138.273325904763

 F12b corrections for ansatz F12/3C(FIX) added to CCSD(T)-F12a energy

  CCSD-F12b singlet pair energy        -0.302681318761
  CCSD-F12b triplet pair energy        -0.132937488578
  CCSD-F12b correlation energy         -0.435618807337

  Triples (T) contribution             -0.012083390211
  Total correlation energy             -0.447702197548

  CCSD-F12b total energy             -138.251128695820
  CCSD[T]-F12b energy                -138.264189602561
  CCSD-T-F12b energy                 -138.262881260191
 !CCSD(T)-F12b total energy          -138.263212086030

 Timing summary (sec):

 STEP                 CPU(USER)    SYS     CPU(TOT)    WALL
 Transformation          0.03      0.01      0.04      0.05
 CCSD iterations         1.26      0.15      1.41      1.42
 Triples                 0.26      0.02      0.28      0.27
 MP2-F12                 2.18      0.07      2.25      2.62
 F12b energy             0.03      0.00      0.03      0.03

 Program statistics:

 Available memory in ccsd:              1999999744
 Min. memory needed in ccsd:                136839
 Max. memory used in ccsd:                  163083
 Max. memory used in cckext:                208330 (26 integral passes)



 **********************************************************************************************************************************
 DATASETS  * FILE   NREC   LENGTH (MB)   RECORD NAMES
              1      20       45.77       500      610      700      900      950      970     1000      129      960     1100   
                                          VAR    BASINP    GEOM    SYMINP    ZMAT    AOBASIS   BASIS     P2S    ABASIS      S 
                                         1400     1410     1200     1210     1080     1600     1650     1300     1700     1380   
                                           T        V       H0       H01     AOSYM     SMH    MOLCAS    ERIS     OPER     JKOP   

              2       6        2.90       700     1000      520     2100     7360     7350   
                                         GEOM     BASIS   MCVARS     RHF    F12ABS    EF12   

 PROGRAMS   *        TOTAL   CCSD(T)    HF-SCF       INT
 CPU TIMES  *         5.10      3.79      0.26      0.91
 REAL TIME  *         7.66 SEC
 DISK USED  *        97.74 MB
 **********************************************************************************************************************************
 SETTING EE(1)          =      -138.26321209  AU                              


 Computing numerical gradient using default procedure for command CCSD(T)-F12

 *** Long output written to logfile /home/mdavis/f12eom_optimizer/tests/slurm/molpro_step.log ***


 Running default procedure: HF-SCF000  CCSD(T)-F12


 Generated   3 symmetrical displacements

 Numerical gradient for CCSD(T)-F12

 Total Energy          -138.26321209  Dipole moments:    0.000000    0.000000    0.000000

 Atom          dE/dx               dE/dy               dE/dz                  d2E/dx2             d2E/dy2             d2E/dz2
   1         0.005160894         0.007030561         0.000000000            0.000000000         0.000000000         0.000000000
   2        -0.014679999        -0.044640243         0.000000000            0.000000000         0.000000000         0.000000000
   3         0.009519105         0.037609681         0.000000000            0.000000000         0.000000000         0.000000000

 Recomputing wavefunction at initial geometry


 **********************************************************************************************************************************
 DATASETS  * FILE   NREC   LENGTH (MB)   RECORD NAMES
              1      21       45.99       500      610      700      900      701      950      970     1000      129      960   
                                          VAR    BASINP    GEOM    SYMINP    GEOM     ZMAT    AOBASIS   BASIS     P2S    ABASIS    
                                         1100     1400     1410     1200     1210     1080     1600     1650     1300     1700   
                                           S        T        V       H0       H01     AOSYM     SMH    MOLCAS    ERIS     OPER   
                                         1380   
                                         JKOP   

              2       8        3.12       700     1000      520     2100     7360     7350      701     5600   
                                         GEOM     BASIS   MCVARS     RHF    F12ABS    EF12     GEOM     GINFO   

 PROGRAMS   *        TOTAL    FORCES    HF-SCF       INT   CCSD(T)    HF-SCF       INT
 CPU TIMES  *        40.51      3.76      0.04     31.61      3.79      0.26      0.91
 REAL TIME  *        50.70 SEC
 DISK USED  *       100.73 MB
 **********************************************************************************************************************************
 EE(1)            =     -138.263212086031 AU
 GRADX(1:3)       = [      0.005160893593   -0.014679998815    0.009519105222] AU
 GRADY(1:3)       = [      0.007030561138   -0.044640242581    0.037609681444] AU
 GRADZ(1:3)       = [      0.000000000000    0.000000000000    0.000000000000] AU

 CCSD(T)-F12/cc-pVDZ-F12 energy=   -138.263212086031

     CCSD(T)-F12          HF-SCF     CCSD(T)-F12          HF-SCF
   -138.26321209   -137.80887024   -138.26321209   -137.80887024
 **********************************************************************************************************************************
 Molpro calculation terminated
