
 Primary working directories    : /scratch/mdavis/molpro_step_2022-08-17_20_05_47/molpro.onStyE2lC4
 Secondary working directories  : /scratch/mdavis/molpro_step_2022-08-17_20_05_47/molpro.onStyE2lC4
 Wavefunction directory         : /home/mdavis/f12eom_optimizer/tests/slurm/./
 Main file repository           : /scratch/mdavis/molpro_step_2022-08-17_20_05_47/molpro.onStyE2lC4/

 id        : olemiss

 Nodes     nprocs
 node17       1

 Using customized tuning parameters: mindgm=1; mindgv=20; mindgc=4; mindgr=1; noblas=0; minvec=7
 default implementation of scratch files=df  


 Variables initialized (945), CPU time= 0.01 sec
 ***,part of geometry opt run
 memory, 2000.0, m;
 gthresh,energy=1.d-12,zero=1.d-22,oneint=1.d-22,twoint=1.d-22;
 gthresh,optgrad=1.d-8,optstep=1.d-8;
 nocompress;
 bohr;
 geometry={
      3
 Fragment 1
     H  -1.5930681322   1.7218915596   0.0000000000
     C   0.4352095936   0.9982605446   0.0000000000
     F   0.2792112732  -1.3998722543   0.0000000000
      }
 
 set,charge=0
 set,spin=0
 basis=vdz-f12
 hf,maxit=500;wf,charge=0,spin=0;accu,20;
 ccsd(t)-f12,maxit=250;wf,charge=0,spin=0;orbital,IGNORE_ERROR;
 ee(1)=energy(2)
 forces,varsav
 SHOW[f18.12],ee(1)
 SHOW[f18.12],GRADX
 SHOW[f18.12],GRADY
 SHOW[f18.12],GRADZ
 Commands  initialized (802), CPU time= 0.00 sec, 659 directives.
 Default parameters read. Elapsed time= 0.12 sec

 Checking input...
 Passed
1


                                         ***  PROGRAM SYSTEM MOLPRO  ***
                                       Copyright, TTI GmbH Stuttgart, 2015
                                    Version 2020.1 linked Oct  6 2020 12:04:11


 **********************************************************************************************************************************
 LABEL *   part of geometry opt run                                                      
  64 bit serial version                                                                  DATE: 17-Aug-22          TIME: 20:07:31  
 **********************************************************************************************************************************

 SHA1:             8c27446f6450a7499e38f603e13c65f775101d37
 **********************************************************************************************************************************

 Memory per process:      2000 MW
 Total memory per node:   2000 MW

 GA preallocation disabled
 GA check disabled

 Variable memory set to 2000.0 MW


 THRESHOLDS:

 ZERO    =  1.00D-22  ONEINT  =  1.00D-22  TWOINT  =  1.00D-22  PREFAC  =  1.00D-14  XXXXXX  =  1.00D-09  EORDER  =  1.00D-04
 ENERGY  =  1.00D-12  ETEST   =  0.00D+00  EDENS   =  0.00D+00  THRDEDEF=  1.00D-06  GRADIENT=  1.00D-05  STEP    =  1.00D-03
 ORBITAL =  1.00D-05  CIVEC   =  1.00D-05  COEFF   =  1.00D-04  PRINTCI =  5.00D-02  PUNCHCI =  9.90D+01  OPTGRAD =  3.00D-04
 OPTENERG=  1.00D-06  OPTSTEP =  3.00D-04  THRGRAD =  1.00D-10  COMPRESS=  1.00D-11  VARMIN  =  1.00D-07  VARMAX  =  1.00D-03
 THRDOUB =  0.00D+00  THRDIV  =  1.00D-05  THRRED  =  1.00D-07  THRPSP  =  1.00D+00  THRDC   =  1.00D-10  THRCS   =  1.00D-10
 THRNRM  =  1.00D-08  THREQ   =  0.00D+00  THRDE   =  1.00D+00  THRREF  =  1.00D-05  SPARFAC =  1.00D+00  THRDLP  =  1.00D-07
 THRDIA  =  1.00D-10  THRDLS  =  1.00D-07  THRGPS  =  0.00D+00  THRKEX  =  0.00D+00  THRDIS  =  2.00D-01  THRVAR  =  1.00D-10
 THRLOC  =  1.00D-06  THRGAP  =  1.00D-06  THRLOCT = -1.00D+00  THRGAPT = -1.00D+00  THRORB  =  1.00D-06  THRMLTP =  0.00D+00
 THRCPQCI=  1.00D-10  KEXTA   =  0.00D+00  THRCOARS=  0.00D+00  SYMTOL  =  1.00D-06  GRADTOL =  1.00D-06  THROVL  =  1.00D-08
 THRORTH =  1.00D-08  GRID    =  1.00D-06  GRIDMAX =  1.00D-03  DTMAX   =  0.00D+00  THROCCDE=  1.00D-01  THROCCDE=  1.00D-01
 THRPRINT=  2.50D-01


 THRESHOLDS:

 ZERO    =  1.00D-22  ONEINT  =  1.00D-22  TWOINT  =  1.00D-22  PREFAC  =  1.00D-14  XXXXXX  =  1.00D-09  EORDER  =  1.00D-04
 ENERGY  =  1.00D-12  ETEST   =  0.00D+00  EDENS   =  0.00D+00  THRDEDEF=  1.00D-06  GRADIENT=  1.00D-05  STEP    =  1.00D-03
 ORBITAL =  1.00D-05  CIVEC   =  1.00D-05  COEFF   =  1.00D-04  PRINTCI =  5.00D-02  PUNCHCI =  9.90D+01  OPTGRAD =  1.00D-08
 OPTENERG=  1.00D-06  OPTSTEP =  1.00D-08  THRGRAD =  1.00D-10  COMPRESS=  1.00D-11  VARMIN  =  1.00D-07  VARMAX  =  1.00D-03
 THRDOUB =  0.00D+00  THRDIV  =  1.00D-05  THRRED  =  1.00D-07  THRPSP  =  1.00D+00  THRDC   =  1.00D-10  THRCS   =  1.00D-10
 THRNRM  =  1.00D-08  THREQ   =  0.00D+00  THRDE   =  1.00D+00  THRREF  =  1.00D-05  SPARFAC =  1.00D+00  THRDLP  =  1.00D-07
 THRDIA  =  1.00D-10  THRDLS  =  1.00D-07  THRGPS  =  0.00D+00  THRKEX  =  0.00D+00  THRDIS  =  2.00D-01  THRVAR  =  1.00D-10
 THRLOC  =  1.00D-06  THRGAP  =  1.00D-06  THRLOCT = -1.00D+00  THRGAPT = -1.00D+00  THRORB  =  1.00D-06  THRMLTP =  0.00D+00
 THRCPQCI=  1.00D-10  KEXTA   =  0.00D+00  THRCOARS=  0.00D+00  SYMTOL  =  1.00D-06  GRADTOL =  1.00D-06  THROVL  =  1.00D-08
 THRORTH =  1.00D-08  GRID    =  1.00D-06  GRIDMAX =  1.00D-03  DTMAX   =  0.00D+00  THROCCDE=  1.00D-01  THROCCDE=  1.00D-01
 THRPRINT=  2.50D-01


 Input parameters for SORTINT:

 COMPRESS =    0.000000
 C_FINAL  =    1.000000
 DEBUG    =   -1.000000
 C_SORT1  =    0.000000
 C_SEWARD =    0.000000
 THRESH   =    0.000000
 IO       =  molpro                                                                                                                          
 SPRI     =    0.000000
 ZUNIT=BOHR


 Geometry recognized as XYZ

 SETTING CHARGE         =     0.00000000D+00                                  
 SETTING SPIN           =     0.00000000D+00                                  
 SETTING BASIS          =    VDZ-F12


 Recomputing integrals since basis changed


 Using spherical harmonics

 Library entry H      S cc-pVDZ-F12          selected for orbital group  1
 Library entry H      P cc-pVDZ-F12          selected for orbital group  1
 Library entry C      S cc-pVDZ-F12          selected for orbital group  2
 Library entry C      P cc-pVDZ-F12          selected for orbital group  2
 Library entry C      D cc-pVDZ-F12          selected for orbital group  2
 Library entry F      S cc-pVDZ-F12          selected for orbital group  3
 Library entry F      P cc-pVDZ-F12          selected for orbital group  3
 Library entry F      D cc-pVDZ-F12          selected for orbital group  3


 PROGRAM * SEWARD (Integral evaluation for generally contracted gaussian basis sets)     Author: Roland Lindh, 1990

 Geometry written to block  1 of record 700


 Point group  Cs  



 ATOMIC COORDINATES

 NR  ATOM    CHARGE       X              Y              Z

   1  H       1.00   -1.593068132    1.721891560    0.000000000
   2  C       6.00    0.435209594    0.998260545    0.000000000
   3  F       9.00    0.279211273   -1.399872254    0.000000000

 Bond lengths in Bohr (Angstrom)

 1-2  2.153497708  2-3  2.403201281
     ( 1.139581911)     ( 1.271719351)

 Bond angles

  1-2-3  105.91309322

 NUCLEAR CHARGE:                   16
 NUMBER OF PRIMITIVE AOS:          93
 NUMBER OF SYMMETRY AOS:           89
 NUMBER OF CONTRACTIONS:           69   (   49A'  +   20A"  )
 NUMBER OF INNER CORE ORBITALS:     0   (    0A'  +    0A"  )
 NUMBER OF OUTER CORE ORBITALS:     2   (    2A'  +    0A"  )
 NUMBER OF VALENCE ORBITALS:        9   (    7A'  +    2A"  )


 NUCLEAR REPULSION ENERGY   27.72860483

 Eigenvalues of metric

         1 0.151E-02 0.301E-02 0.323E-02 0.331E-02 0.413E-02 0.468E-02 0.471E-02 0.915E-02
         2 0.330E-02 0.468E-02 0.783E-01 0.929E-01 0.137E+00 0.168E+00 0.245E+00 0.383E+00


 Contracted 2-electron integrals neglected if value below      1.0D-22

        1426049. INTEGRALS WRITTEN OUT IN     349 BLOCKS ON RECORD 1290 OF FILE 1


 NUMBER OF SORTED TWO-ELECTRON INTEGRALS:    1544830.     BUFFER LENGTH:  32768
 NUMBER OF SEGMENTS:   1  SEGMENT LENGTH:    1544830      RECORD LENGTH: 524288

 Memory used in sort:       2.10 MW

 SORT1 READ     1426049. AND WROTE     1455925. INTEGRALS IN      5 RECORDS. CPU TIME:     0.02 SEC, REAL TIME:     0.03 SEC
 SORT2 READ     1455925. AND WROTE     1544830. INTEGRALS IN      1 RECORDS. CPU TIME:     0.05 SEC, REAL TIME:     0.06 SEC

 FILE SIZES:   FILE 1:    53.0 MBYTE,  FILE 4:    21.0 MBYTE,   TOTAL:     74.0 MBYTE

 OPERATOR DM      FOR CENTER  0  COORDINATES:    0.000000    0.000000    0.000000


 **********************************************************************************************************************************
 DATASETS  * FILE   NREC   LENGTH (MB)   RECORD NAMES
              1      19       42.18       500      610      700      900      950      970     1000      129      960     1100   
                                          VAR    BASINP    GEOM    SYMINP    ZMAT    AOBASIS   BASIS     P2S    ABASIS      S 
                                         1400     1410     1200     1210     1080     1600     1650     1300     1700   
                                           T        V       H0       H01     AOSYM     SMH    MOLCAS    ERIS     OPER   

 PROGRAMS   *        TOTAL       INT
 CPU TIMES  *         1.11      0.95
 REAL TIME  *         6.10 SEC
 DISK USED  *        74.32 MB
 **********************************************************************************************************************************


 PROGRAM * RHF-SCF (CLOSED SHELL)       Authors: W. Meyer, H.-J. Werner


 NUMBER OF ELECTRONS:       8+    8-
 CONVERGENCE THRESHOLDS:    1.00E-10 (Density)    1.00E-13 (Energy)
 MAX. NUMBER OF ITERATIONS:      500
 INTERPOLATION TYPE:            DIIS
 INTERPOLATION STEPS:              2 (START)      1 (STEP)
 LEVEL SHIFTS:                  0.00 (CLOSED)  0.00 (OPEN) 



 Orbital guess generated from atomic densities. Full valence occupancy:    9   2

 Molecular orbital dump at record        2100.2

 Initial occupancy:   7   1

 ITERATION    DDIFF          GRAD             ENERGY        2-EL.EN.            DIPOLE MOMENTS         DIIS   ORB.
    1      0.000D+00      0.000D+00      -137.78052228    157.914457   -0.69082   -0.08401    0.00000    0    start
    2      0.000D+00      0.100D-01      -137.80578199    159.101880   -0.65528   -0.09875    0.00000    1    diag
    3      0.137D-01      0.346D-02      -137.80844765    159.297612   -0.62685    0.00404    0.00000    2    diag
    4      0.375D-02      0.110D-02      -137.80874011    159.113053   -0.62399    0.00045    0.00000    3    diag
    5      0.108D-02      0.318D-03      -137.80878841    159.181889   -0.62345    0.01178    0.00000    4    diag
    6      0.402D-03      0.746D-04      -137.80879339    159.182206   -0.62276    0.01417    0.00000    5    diag
    7      0.140D-03      0.241D-04      -137.80879388    159.182765   -0.62284    0.01440    0.00000    6    diag
    8      0.527D-04      0.505D-05      -137.80879390    159.182594   -0.62283    0.01434    0.00000    7    diag
    9      0.110D-04      0.924D-06      -137.80879390    159.182614   -0.62285    0.01431    0.00000    8    diag
   10      0.212D-05      0.196D-06      -137.80879390    159.182611   -0.62285    0.01430    0.00000    9    orth
   11      0.540D-06      0.492D-07      -137.80879390    159.182610   -0.62285    0.01430    0.00000    9    diag
   12      0.138D-06      0.103D-07      -137.80879390    159.182610   -0.62285    0.01430    0.00000    9    diag
   13      0.226D-07      0.238D-08      -137.80879390    159.182610   -0.62285    0.01430    0.00000    9    diag
   14      0.514D-08      0.619D-09      -137.80879390    159.182610   -0.62285    0.01430    0.00000    9    diag
   15      0.141D-08      0.132D-09      -137.80879390    159.182610   -0.62285    0.01430    0.00000    9    diag
   16      0.175D-09      0.402D-10      -137.80879390    159.182610   -0.62285    0.01430    0.00000    9    diag
   17      0.677D-10      0.713D-11      -137.80879390    159.182610   -0.62285    0.01430    0.00000    9    diag
   18      0.167D-10      0.154D-11      -137.80879390    159.182610   -0.62285    0.01430    0.00000    0    orth

 Final occupancy:   7   1

 !RHF STATE  1.1 Energy              -137.808793897890
 Nuclear energy                        27.72860483
 One-electron energy                 -245.12870366
 Two-electron energy                   79.59130493
 Virial quotient                       -1.00051270
 !RHF STATE  1.1 Dipole moment         -0.62284978     0.01429669     0.00000000
 Dipole moment /Debye                  -1.58302255     0.03633619     0.00000000

 Orbital energies:

         1.1          2.1          3.1          4.1          5.1          6.1          7.1          8.1          9.1
    -26.372039   -11.367196    -1.708493    -0.937879    -0.780932    -0.676511    -0.398615     0.070400     0.082647

         1.2          2.2          3.2
     -0.731382     0.047345     0.128023


 HOMO      7.1    -0.398615 =     -10.8469eV
 LUMO      2.2     0.047345 =       1.2883eV
 LUMO-HOMO         0.445960 =      12.1352eV


 **********************************************************************************************************************************
 DATASETS  * FILE   NREC   LENGTH (MB)   RECORD NAMES
              1      19       42.18       500      610      700      900      950      970     1000      129      960     1100   
                                          VAR    BASINP    GEOM    SYMINP    ZMAT    AOBASIS   BASIS     P2S    ABASIS      S 
                                         1400     1410     1200     1210     1080     1600     1650     1300     1700   
                                           T        V       H0       H01     AOSYM     SMH    MOLCAS    ERIS     OPER   

              2       4        2.84       700     1000      520     2100   
                                         GEOM     BASIS   MCVARS     RHF  

 PROGRAMS   *        TOTAL    HF-SCF       INT
 CPU TIMES  *         1.38      0.27      0.95
 REAL TIME  *         6.43 SEC
 DISK USED  *        74.32 MB
 **********************************************************************************************************************************


 PROGRAM * CCSD (Closed-shell coupled cluster)     Authors: C. Hampel, H.-J. Werner, 1991, M. Deegan, P.J. Knowles, 1992

                                  CCSD-F12 implementation by  H.-J. Werner, 2007

                   Density fitting integral evaluation by F.R. Manby, 2003,2007, G. Knizia, 2010


 Basis set AUG-CC-PVDZ/JKFIT generated.  Number of basis functions:   204 
 Basis set CC-PVDZ-F12/OPTRI generated.  Number of basis functions:   154 
 Basis set AUG-CC-PVDZ/MP2FIT generated. Number of basis functions:   167 

 Convergence thresholds:  THRVAR = 1.00D-16  THRDEN = 1.00D-12

 CCSD(T)     terms to be evaluated (factor= 1.000)


 Number of core orbitals:           2 (   2   0 )
 Number of closed-shell orbitals:   6 (   5   1 )
 Number of external orbitals:      61 (  42  19 )

 Molecular orbitals read from record     2100.2  Type=RHF/CANONICAL (state 1.1)

 MP2-F12 correlation treatment (H.-J. Werner, 2006)
 ==================================================

 Using MP2-F12 with ansatz 3C(FIX)

 Using projected zeroth-order Hamiltonian (+Z)

 FOCKRIB=T FOCKRIC=T FOCKRIP=T CABSP=T CABSA=T CABSK=T CABSF=T GBC=F EBC=F DMAT=T NOFIK=T NOPAO=1 SOLVE=-1  USEPAO=0
 EXCH_A= T EXCH_B= F EXCH_C= F EXCH_P= F

 Geminal basis:    OPTFULL  GEM_TYPE=SLATER  BETA=1.0  NGEM=6

 Optimizing Gaussian exponents for each gem_beta

 Geminal optimization for beta= 1.0000
 Weight function:   m=0, omega= 1.4646

 Augmented Hessian optimization of geminal fit. Trust ratio= 0.40000
 Convergence reached after   2 iterations. Final gradient= 8.66D-16, Step= 4.23D-06, Delta= 1.28D-09

 Alpha:                 0.19532     0.81920     2.85917     9.50073    35.69989   197.79328
 Coeff:                 0.27070     0.30552     0.18297     0.10986     0.06810     0.04224


 Symmetry turned off. Reference energy:       -137.808793897890

 All pairs explicitly correlated. Number of r12-pairs:           21

 Excluding core orbitals from MO domains

 AO(A)-basis ORBITAL           loaded. Number of functions:      69
 RI(R)-basis CC-PVDZ-F12/OPTRI loaded. Number of functions:     154
 DF-basis AUG-CC-PVDZ/JKFIT    loaded. Number of functions:     204

 Screening thresholds:   THRAO=  1.00D-10  THRMO=  1.00D-10  THRPROD=  1.00D-10
                         THRSW=  1.00D-07  THROV=  1.00D-12  THRAOF12= 1.00D-08

 CPU time for Fock operators                      0.88 sec

 Construction of ABS:
 Smallest eigenvalue of S          3.66E-03  (threshold= 1.00E-08)
 Ratio eigmin/eigmax               7.71E-04  (threshold= 1.00E-09)
 Smallest eigenvalue of S kept     3.66E-03  (threshold= 3.66E-03, 0 functions deleted, 154 kept)

 Construction of CABS:
 Smallest eigenvalue of S          9.80E-06  (threshold= 1.00E-08)
 Ratio eigmin/eigmax               9.80E-06  (threshold= 1.00E-09)
 Smallest eigenvalue of S kept     9.80E-06  (threshold= 9.80E-06, 0 functions deleted, 154 kept)

 CPU time for CABS singles                        0.01 sec

 CABS-singles contribution of  -0.00656448 patched into reference energy.
 New reference energy        -137.81535838

 AO(A)-basis ORBITAL           loaded. Number of functions:      69
 RI(R)-basis CC-PVDZ-F12/OPTRI loaded. Number of functions:     154
 DF-basis AUG-CC-PVDZ/MP2FIT   loaded. Number of functions:     167

 Screening thresholds:   THRAO=  1.00D-10  THRMO=  1.00D-10  THRPROD=  1.00D-10
                         THRSW=  1.00D-07  THROV=  1.00D-12  THRAOF12= 1.00D-08

 CPU time for 3-index integral evaluation         0.44 sec
 CPU time for first  half transformation          0.01 sec (15196.5 MFLOP/sec)
 CPU time for assembly                            0.02 sec (38743.9 MFLOP/sec)
 CPU time for tranop_f12                          0.04 sec (26124.8 MFLOP/sec)
 CPU time for f12 integrals (total)               1.18 sec, Elapsed time:      1.26 sec
 CPU time for f12 matrices (total)                0.01 sec, Elapsed time:      0.02 sec

 Diagonal F12 approximation with fixed coefficients:  TSING= 0.500,  TTRIP= 0.250 (scaled by -1/beta)

 DF-MP2-F12 energy corrections:
 ==============================
 Approx.                                    Singlet             Triplet             Total
 DF-MP2-F12/3*C(DX,FIX)                -0.078267778026     -0.016335609215     -0.094603387241
 DF-MP2-F12/3*C(FIX)                   -0.068976790520     -0.015351122837     -0.084327913357
 DF-MP2-F12/3C(FIX)                    -0.069668433435     -0.016151565967     -0.085819999402

 DF-MP2-F12 correlation energies:
 ================================
 Approx.                                    Singlet             Triplet             Ecorr            Total Energy
 DF-MP2                                -0.222943325353     -0.131453082454     -0.354396407806   -138.169754786611
 DF-MP2-F12/3*C(DX,FIX)                -0.301211103379     -0.147788691668     -0.448999795048   -138.264358173852
 DF-MP2-F12/3*C(FIX)                   -0.291920115873     -0.146804205291     -0.438724321164   -138.254082699968
 DF-MP2-F12/3C(FIX)                    -0.292611758787     -0.147604648421     -0.440216407208   -138.255574786013

 SCS-DF-MP2 energies (F_SING= 1.20000  F_TRIP= 0.62222  F_PARALLEL= 0.33333):
 ============================================================================
 SCS-DF-MP2                            -0.349325019506   -138.164683398310
 SCS-DF-MP2-F12/3*C(DX,FIX)            -0.453410732204   -138.268769111009
 SCS-DF-MP2-F12/3*C(FIX)               -0.441648977895   -138.257007356700
 SCS-DF-MP2-F12/3C(FIX)                -0.442977002896   -138.258335381700

 Symmetry restored.
 Symmetry transformation completed.

 Number of N-1 electron functions:               6
 Number of N-2 electron functions:              21
 Number of singly external CSFs:               229
 Number of doubly external CSFs:             35788
 Total number of CSFs:                       36018

 Length of J-op  integral file:              15.24 MB
 Length of K-op  integral file:              18.55 MB
 Length of 3-ext integral record:             0.00 MB

 Memory could be reduced to 1.16 Mwords without degradation in triples

 Integral transformation finished. Total CPU:   0.03 sec, npass=  1  Memory used:   0.52 MW

 Reference energy:                   -137.81535838

 Adding F12 terms to K(Cij), methodcc=6,  factor= 1.0

 ITER.      SQ.NORM     CORR.ENERGY   TOTAL ENERGY   ENERGY CHANGE        DEN1      VAR(S)    VAR(P)  DIIS     TIME  TIME/IT
   1      1.09181866    -0.36102812  -138.17638650    -0.00653696     0.00481315  0.25D-02  0.21D-02  1  1     2.21     0.05
   2      1.10111696    -0.36177458  -138.17713296    -0.00074646    -0.00895753  0.76D-04  0.50D-03  2  2     2.26     0.05
   3      1.10732673    -0.36254347  -138.17790185    -0.00076889    -0.00246977  0.82D-04  0.78D-04  3  3     2.31     0.05
   4      1.11102850    -0.36272406  -138.17808244    -0.00018059    -0.00127608  0.64D-05  0.21D-04  4  4     2.36     0.05
   5      1.11296574    -0.36276979  -138.17812817    -0.00004573    -0.00033464  0.73D-06  0.38D-05  5  5     2.41     0.05
   6      1.11368461    -0.36276598  -138.17812436     0.00000381    -0.00005015  0.12D-06  0.61D-06  6  6     2.45     0.05
   7      1.11383513    -0.36277048  -138.17812886    -0.00000450    -0.00001378  0.67D-07  0.81D-07  6  2     2.50     0.05
   8      1.11384171    -0.36277194  -138.17813032    -0.00000146     0.00000566  0.89D-08  0.13D-07  6  1     2.55     0.05
   9      1.11384835    -0.36277247  -138.17813085    -0.00000053    -0.00000173  0.30D-08  0.15D-08  6  3     2.60     0.05
  10      1.11384467    -0.36277297  -138.17813135    -0.00000050     0.00000200  0.29D-09  0.25D-09  6  4     2.64     0.05
  11      1.11384310    -0.36277302  -138.17813140    -0.00000006     0.00000043  0.83D-10  0.27D-10  6  5     2.69     0.06
  12      1.11384225    -0.36277309  -138.17813147    -0.00000007     0.00000035  0.99D-11  0.61D-11  6  6     2.75     0.06
  13      1.11384182    -0.36277310  -138.17813148    -0.00000001     0.00000006  0.23D-11  0.13D-11  6  2     2.79     0.06
  14      1.11384153    -0.36277311  -138.17813149    -0.00000001     0.00000005  0.24D-12  0.45D-12  6  1     2.84     0.06
  15      1.11384136    -0.36277311  -138.17813149    -0.00000000     0.00000002  0.24D-13  0.15D-12  6  3     2.89     0.06
  16      1.11384127    -0.36277311  -138.17813149    -0.00000000     0.00000001  0.53D-14  0.44D-13  6  4     2.94     0.06
  17      1.11384121    -0.36277311  -138.17813149    -0.00000000     0.00000001  0.47D-14  0.73D-14  6  5     2.99     0.06
  18      1.11384119    -0.36277311  -138.17813149     0.00000000     0.00000000  0.78D-15  0.99D-15  6  6     3.04     0.06
  19      1.11384119    -0.36277311  -138.17813149    -0.00000000     0.00000000  0.13D-15  0.13D-15  6  1     3.10     0.06
  20      1.11384119    -0.36277311  -138.17813149     0.00000000    -0.00000000  0.60D-17  0.85D-17  6  5     3.14     0.06
  21      1.11384119    -0.36277311  -138.17813149    -0.00000000     0.00000000  0.10D-17  0.69D-18  6  2     3.19     0.06
  22      1.11384119    -0.36277311  -138.17813149    -0.00000000     0.00000000  0.19D-18  0.89D-19  6  3     3.24     0.68
  23      1.11384119    -0.36277311  -138.17813149    -0.00000000     0.00000000  0.53D-19  0.13D-19  6  4     3.29     0.66
  24      1.11384119    -0.36277311  -138.17813149    -0.00000000     0.00000000  0.12D-19  0.37D-20  6  6     3.33     0.63
  25      1.11384119    -0.36277311  -138.17813149     0.00000000    -0.00000000  0.12D-20  0.75D-21  6  1     3.38     0.61
  26      1.11384119    -0.36277311  -138.17813149     0.00000000    -0.00000000  0.10D-21  0.19D-21  6  5     3.43     0.59

 Norm of t1 vector:      0.07674173      S-energy:    -0.00000000      T1 diagnostic:  0.01566484
                                                                       D1 diagnostic:  0.04551105

 Adding energy correction from Wij-K(Fij), methodcc=6  factor= 1.0

  CCSD correlation energy              -0.362773111555
  MP2-F12 correction (uncoupled)       -0.080952162529
  C*T doubles correction               -0.002728870833
  f12b correction                       0.010128867530


 Total CPU time for triples:      0.25 sec


 RESULTS
 =======

  Reference energy                   -137.808793897890
  F12 singles correction               -0.006564480915

 F12 singles corrections added to reference energy

  New reference energy               -137.815358378805

  F12a singlet correction              -0.068258998023
  F12a triplet correction              -0.015422035339
  F12a total correction                -0.083681033362

 F12a corrections for ansatz F12/3C(FIX) added to CCSD energy

  CCSD-F12a singlet pair energy        -0.312535451767
  CCSD-F12a triplet pair energy        -0.133918693149
  CCSD-F12a correlation energy         -0.446454144917

  Triples (T) contribution             -0.012216445814
  Total correlation energy             -0.458670590731

  CCSD-F12a total energy             -138.261812523722
  CCSD[T]-F12a energy                -138.275038921744
  CCSD-T-F12a energy                 -138.273685855070
 !CCSD(T)-F12a total energy          -138.274028969536

 F12b corrections for ansatz F12/3C(FIX) added to CCSD(T)-F12a energy

  CCSD-F12b singlet pair energy        -0.303380472983
  CCSD-F12b triplet pair energy        -0.132944804403
  CCSD-F12b correlation energy         -0.436325277387

  Triples (T) contribution             -0.012216445814
  Total correlation energy             -0.448541723201

  CCSD-F12b total energy             -138.251683656192
  CCSD[T]-F12b energy                -138.264910054214
  CCSD-T-F12b energy                 -138.263556987540
 !CCSD(T)-F12b total energy          -138.263900102006

 Timing summary (sec):

 STEP                 CPU(USER)    SYS     CPU(TOT)    WALL
 Transformation          0.03      0.02      0.05      0.04
 CCSD iterations         1.28      0.17      1.45     15.37
 Triples                 0.25      0.02      0.27      0.28
 MP2-F12                 2.12      0.12      2.24      2.46
 F12b energy             0.03      0.00      0.03      0.02

 Program statistics:

 Available memory in ccsd:              1999999744
 Min. memory needed in ccsd:                136839
 Max. memory used in ccsd:                  163083
 Max. memory used in cckext:                208330 (27 integral passes)



 **********************************************************************************************************************************
 DATASETS  * FILE   NREC   LENGTH (MB)   RECORD NAMES
              1      20       45.77       500      610      700      900      950      970     1000      129      960     1100   
                                          VAR    BASINP    GEOM    SYMINP    ZMAT    AOBASIS   BASIS     P2S    ABASIS      S 
                                         1400     1410     1200     1210     1080     1600     1650     1300     1700     1380   
                                           T        V       H0       H01     AOSYM     SMH    MOLCAS    ERIS     OPER     JKOP   

              2       6        2.90       700     1000      520     2100     7360     7350   
                                         GEOM     BASIS   MCVARS     RHF    F12ABS    EF12   

 PROGRAMS   *        TOTAL   CCSD(T)    HF-SCF       INT
 CPU TIMES  *         5.12      3.74      0.27      0.95
 REAL TIME  *        24.64 SEC
 DISK USED  *        97.74 MB
 **********************************************************************************************************************************
 SETTING EE(1)          =      -138.26390010  AU                              


 Computing numerical gradient using default procedure for command CCSD(T)-F12

 *** Long output written to logfile /home/mdavis/f12eom_optimizer/tests/slurm/molpro_step.log ***


 Running default procedure: HF-SCF000  CCSD(T)-F12


 Generated   3 symmetrical displacements

 Numerical gradient for CCSD(T)-F12

 Total Energy          -138.26390010  Dipole moments:    0.000000    0.000000    0.000000

 Atom          dE/dx               dE/dy               dE/dz                  d2E/dx2             d2E/dy2             d2E/dz2
   1        -0.005458544         0.009068044         0.000000000            0.000000000         0.000000000         0.000000000
   2        -0.002422216        -0.037636089        -0.000000000            0.000000000         0.000000000         0.000000000
   3         0.007880759         0.028568045         0.000000000            0.000000000         0.000000000         0.000000000

 Recomputing wavefunction at initial geometry


 **********************************************************************************************************************************
 DATASETS  * FILE   NREC   LENGTH (MB)   RECORD NAMES
              1      21       45.99       500      610      700      900      701      950      970     1000      129      960   
                                          VAR    BASINP    GEOM    SYMINP    GEOM     ZMAT    AOBASIS   BASIS     P2S    ABASIS    
                                         1100     1400     1410     1200     1210     1080     1600     1650     1300     1700   
                                           S        T        V       H0       H01     AOSYM     SMH    MOLCAS    ERIS     OPER   
                                         1380   
                                         JKOP   

              2       8        3.12       700     1000      520     2100     7360     7350      701     5600   
                                         GEOM     BASIS   MCVARS     RHF    F12ABS    EF12     GEOM     GINFO   

 PROGRAMS   *        TOTAL    FORCES    HF-SCF       INT   CCSD(T)    HF-SCF       INT
 CPU TIMES  *        41.53      3.81      0.04     32.55      3.74      0.27      0.95
 REAL TIME  *        93.43 SEC
 DISK USED  *       100.73 MB
 **********************************************************************************************************************************
 EE(1)            =     -138.263900102006 AU
 GRADX(1:3)       = [     -0.005458543504   -0.002422215966    0.007880759470] AU
 GRADY(1:3)       = [      0.009068044214   -0.037636089269    0.028568045055] AU
 GRADZ(1:3)       = [      0.000000000000   -0.000000000000    0.000000000000] AU

 CCSD(T)-F12/cc-pVDZ-F12 energy=   -138.263900102006

     CCSD(T)-F12          HF-SCF     CCSD(T)-F12          HF-SCF
   -138.26390010   -137.80879390   -138.26390010   -137.80879390
 **********************************************************************************************************************************
 Molpro calculation terminated
