
 Primary working directories    : /scratch/mdavis/molpro_step_2022-08-17_17_54_49/molpro.YU0du6CIZt
 Secondary working directories  : /scratch/mdavis/molpro_step_2022-08-17_17_54_49/molpro.YU0du6CIZt
 Wavefunction directory         : /home/mdavis/f12eom_optimizer/tests/slurm/./
 Main file repository           : /scratch/mdavis/molpro_step_2022-08-17_17_54_49/molpro.YU0du6CIZt/

 id        : olemiss

 Nodes     nprocs
 node17       1

 Using customized tuning parameters: mindgm=1; mindgv=20; mindgc=4; mindgr=1; noblas=0; minvec=7
 default implementation of scratch files=df  


 Variables initialized (945), CPU time= 0.01 sec
 ***,part of geometry opt run
 memory, 2000.0, m;
 gthresh,energy=1.d-12,zero=1.d-22,oneint=1.d-22,twoint=1.d-22;
 gthresh,optgrad=1.d-8,optstep=1.d-8;
 nocompress;
 bohr;
 geometry={
      3
 Fragment 1
     H  -1.5935918228   1.7231786624   0.0000000000
     C   0.4343515357   0.9903348012   0.0000000000
     F   0.2805930218  -1.3932336136   0.0000000000
      }
 
 set,charge=0
 set,spin=0
 basis=vdz-f12
 hf,maxit=500;wf,charge=0,spin=0;accu,20;
 ccsd(t)-f12,maxit=250;wf,charge=0,spin=0;orbital,IGNORE_ERROR;
 ee(1)=energy(2)
 forces,varsav
 SHOW[f18.12],ee(1)
 SHOW[f18.12],GRADX
 SHOW[f18.12],GRADY
 SHOW[f18.12],GRADZ
 Commands  initialized (802), CPU time= 0.00 sec, 659 directives.
 Default parameters read. Elapsed time= 0.10 sec

 Checking input...
 Passed
1


                                         ***  PROGRAM SYSTEM MOLPRO  ***
                                       Copyright, TTI GmbH Stuttgart, 2015
                                    Version 2020.1 linked Oct  6 2020 12:04:11


 **********************************************************************************************************************************
 LABEL *   part of geometry opt run                                                      
  64 bit serial version                                                                  DATE: 17-Aug-22          TIME: 17:54:49  
 **********************************************************************************************************************************

 SHA1:             8c27446f6450a7499e38f603e13c65f775101d37
 **********************************************************************************************************************************

 Memory per process:      2000 MW
 Total memory per node:   2000 MW

 GA preallocation disabled
 GA check disabled

 Variable memory set to 2000.0 MW


 THRESHOLDS:

 ZERO    =  1.00D-22  ONEINT  =  1.00D-22  TWOINT  =  1.00D-22  PREFAC  =  1.00D-14  XXXXXX  =  1.00D-09  EORDER  =  1.00D-04
 ENERGY  =  1.00D-12  ETEST   =  0.00D+00  EDENS   =  0.00D+00  THRDEDEF=  1.00D-06  GRADIENT=  1.00D-05  STEP    =  1.00D-03
 ORBITAL =  1.00D-05  CIVEC   =  1.00D-05  COEFF   =  1.00D-04  PRINTCI =  5.00D-02  PUNCHCI =  9.90D+01  OPTGRAD =  3.00D-04
 OPTENERG=  1.00D-06  OPTSTEP =  3.00D-04  THRGRAD =  1.00D-10  COMPRESS=  1.00D-11  VARMIN  =  1.00D-07  VARMAX  =  1.00D-03
 THRDOUB =  0.00D+00  THRDIV  =  1.00D-05  THRRED  =  1.00D-07  THRPSP  =  1.00D+00  THRDC   =  1.00D-10  THRCS   =  1.00D-10
 THRNRM  =  1.00D-08  THREQ   =  0.00D+00  THRDE   =  1.00D+00  THRREF  =  1.00D-05  SPARFAC =  1.00D+00  THRDLP  =  1.00D-07
 THRDIA  =  1.00D-10  THRDLS  =  1.00D-07  THRGPS  =  0.00D+00  THRKEX  =  0.00D+00  THRDIS  =  2.00D-01  THRVAR  =  1.00D-10
 THRLOC  =  1.00D-06  THRGAP  =  1.00D-06  THRLOCT = -1.00D+00  THRGAPT = -1.00D+00  THRORB  =  1.00D-06  THRMLTP =  0.00D+00
 THRCPQCI=  1.00D-10  KEXTA   =  0.00D+00  THRCOARS=  0.00D+00  SYMTOL  =  1.00D-06  GRADTOL =  1.00D-06  THROVL  =  1.00D-08
 THRORTH =  1.00D-08  GRID    =  1.00D-06  GRIDMAX =  1.00D-03  DTMAX   =  0.00D+00  THROCCDE=  1.00D-01  THROCCDE=  1.00D-01
 THRPRINT=  2.50D-01


 THRESHOLDS:

 ZERO    =  1.00D-22  ONEINT  =  1.00D-22  TWOINT  =  1.00D-22  PREFAC  =  1.00D-14  XXXXXX  =  1.00D-09  EORDER  =  1.00D-04
 ENERGY  =  1.00D-12  ETEST   =  0.00D+00  EDENS   =  0.00D+00  THRDEDEF=  1.00D-06  GRADIENT=  1.00D-05  STEP    =  1.00D-03
 ORBITAL =  1.00D-05  CIVEC   =  1.00D-05  COEFF   =  1.00D-04  PRINTCI =  5.00D-02  PUNCHCI =  9.90D+01  OPTGRAD =  1.00D-08
 OPTENERG=  1.00D-06  OPTSTEP =  1.00D-08  THRGRAD =  1.00D-10  COMPRESS=  1.00D-11  VARMIN  =  1.00D-07  VARMAX  =  1.00D-03
 THRDOUB =  0.00D+00  THRDIV  =  1.00D-05  THRRED  =  1.00D-07  THRPSP  =  1.00D+00  THRDC   =  1.00D-10  THRCS   =  1.00D-10
 THRNRM  =  1.00D-08  THREQ   =  0.00D+00  THRDE   =  1.00D+00  THRREF  =  1.00D-05  SPARFAC =  1.00D+00  THRDLP  =  1.00D-07
 THRDIA  =  1.00D-10  THRDLS  =  1.00D-07  THRGPS  =  0.00D+00  THRKEX  =  0.00D+00  THRDIS  =  2.00D-01  THRVAR  =  1.00D-10
 THRLOC  =  1.00D-06  THRGAP  =  1.00D-06  THRLOCT = -1.00D+00  THRGAPT = -1.00D+00  THRORB  =  1.00D-06  THRMLTP =  0.00D+00
 THRCPQCI=  1.00D-10  KEXTA   =  0.00D+00  THRCOARS=  0.00D+00  SYMTOL  =  1.00D-06  GRADTOL =  1.00D-06  THROVL  =  1.00D-08
 THRORTH =  1.00D-08  GRID    =  1.00D-06  GRIDMAX =  1.00D-03  DTMAX   =  0.00D+00  THROCCDE=  1.00D-01  THROCCDE=  1.00D-01
 THRPRINT=  2.50D-01


 Input parameters for SORTINT:

 COMPRESS =    0.000000
 C_FINAL  =    1.000000
 DEBUG    =   -1.000000
 C_SORT1  =    0.000000
 C_SEWARD =    0.000000
 THRESH   =    0.000000
 IO       =  molpro                                                                                                                          
 SPRI     =    0.000000
 ZUNIT=BOHR


 Geometry recognized as XYZ

 SETTING CHARGE         =     0.00000000D+00                                  
 SETTING SPIN           =     0.00000000D+00                                  
 SETTING BASIS          =    VDZ-F12


 Recomputing integrals since basis changed


 Using spherical harmonics

 Library entry H      S cc-pVDZ-F12          selected for orbital group  1
 Library entry H      P cc-pVDZ-F12          selected for orbital group  1
 Library entry C      S cc-pVDZ-F12          selected for orbital group  2
 Library entry C      P cc-pVDZ-F12          selected for orbital group  2
 Library entry C      D cc-pVDZ-F12          selected for orbital group  2
 Library entry F      S cc-pVDZ-F12          selected for orbital group  3
 Library entry F      P cc-pVDZ-F12          selected for orbital group  3
 Library entry F      D cc-pVDZ-F12          selected for orbital group  3


 PROGRAM * SEWARD (Integral evaluation for generally contracted gaussian basis sets)     Author: Roland Lindh, 1990

 Geometry written to block  1 of record 700


 Point group  Cs  



 ATOMIC COORDINATES

 NR  ATOM    CHARGE       X              Y              Z

   1  H       1.00   -1.593591823    1.723178662    0.000000000
   2  C       6.00    0.434351536    0.990334801    0.000000000
   3  F       9.00    0.280593022   -1.393233614    0.000000000

 Bond lengths in Bohr (Angstrom)

 1-2  2.156296452  2-3  2.388522570
     ( 1.141062943)     ( 1.263951712)

 Bond angles

  1-2-3  106.17757958

 NUCLEAR CHARGE:                   16
 NUMBER OF PRIMITIVE AOS:          93
 NUMBER OF SYMMETRY AOS:           89
 NUMBER OF CONTRACTIONS:           69   (   49A'  +   20A"  )
 NUMBER OF INNER CORE ORBITALS:     0   (    0A'  +    0A"  )
 NUMBER OF OUTER CORE ORBITALS:     2   (    2A'  +    0A"  )
 NUMBER OF VALENCE ORBITALS:        9   (    7A'  +    2A"  )


 NUCLEAR REPULSION ENERGY   27.86553066

 Eigenvalues of metric

         1 0.148E-02 0.297E-02 0.323E-02 0.330E-02 0.414E-02 0.468E-02 0.471E-02 0.912E-02
         2 0.330E-02 0.468E-02 0.775E-01 0.927E-01 0.136E+00 0.167E+00 0.244E+00 0.382E+00


 Contracted 2-electron integrals neglected if value below      1.0D-22

        1426049. INTEGRALS WRITTEN OUT IN     349 BLOCKS ON RECORD 1290 OF FILE 1


 NUMBER OF SORTED TWO-ELECTRON INTEGRALS:    1544830.     BUFFER LENGTH:  32768
 NUMBER OF SEGMENTS:   1  SEGMENT LENGTH:    1544830      RECORD LENGTH: 524288

 Memory used in sort:       2.10 MW

 SORT1 READ     1426049. AND WROTE     1455925. INTEGRALS IN      5 RECORDS. CPU TIME:     0.02 SEC, REAL TIME:     0.04 SEC
 SORT2 READ     1455925. AND WROTE     1544830. INTEGRALS IN      1 RECORDS. CPU TIME:     0.06 SEC, REAL TIME:     0.07 SEC

 FILE SIZES:   FILE 1:    53.0 MBYTE,  FILE 4:    21.0 MBYTE,   TOTAL:     74.0 MBYTE

 OPERATOR DM      FOR CENTER  0  COORDINATES:    0.000000    0.000000    0.000000


 **********************************************************************************************************************************
 DATASETS  * FILE   NREC   LENGTH (MB)   RECORD NAMES
              1      19       42.18       500      610      700      900      950      970     1000      129      960     1100   
                                          VAR    BASINP    GEOM    SYMINP    ZMAT    AOBASIS   BASIS     P2S    ABASIS      S 
                                         1400     1410     1200     1210     1080     1600     1650     1300     1700   
                                           T        V       H0       H01     AOSYM     SMH    MOLCAS    ERIS     OPER   

 PROGRAMS   *        TOTAL       INT
 CPU TIMES  *         1.01      0.88
 REAL TIME  *         2.64 SEC
 DISK USED  *        74.32 MB
 **********************************************************************************************************************************


 PROGRAM * RHF-SCF (CLOSED SHELL)       Authors: W. Meyer, H.-J. Werner


 NUMBER OF ELECTRONS:       8+    8-
 CONVERGENCE THRESHOLDS:    1.00E-10 (Density)    1.00E-13 (Energy)
 MAX. NUMBER OF ITERATIONS:      500
 INTERPOLATION TYPE:            DIIS
 INTERPOLATION STEPS:              2 (START)      1 (STEP)
 LEVEL SHIFTS:                  0.00 (CLOSED)  0.00 (OPEN) 



 Orbital guess generated from atomic densities. Full valence occupancy:    9   2

 Molecular orbital dump at record        2100.2

 Initial occupancy:   7   1

 ITERATION    DDIFF          GRAD             ENERGY        2-EL.EN.            DIPOLE MOMENTS         DIIS   ORB.
    1      0.000D+00      0.000D+00      -137.78057853    158.108655   -0.68989   -0.11105    0.00000    0    start
    2      0.000D+00      0.998D-02      -137.80559459    159.347793   -0.65348   -0.11482    0.00000    1    diag
    3      0.135D-01      0.336D-02      -137.80813498    159.507822   -0.62531   -0.01598    0.00000    2    diag
    4      0.366D-02      0.106D-02      -137.80841380    159.331824   -0.62260   -0.01902    0.00000    3    diag
    5      0.106D-02      0.320D-03      -137.80846044    159.401715   -0.62209   -0.00773    0.00000    4    diag
    6      0.394D-03      0.740D-04      -137.80846525    159.401796   -0.62140   -0.00536    0.00000    5    diag
    7      0.139D-03      0.237D-04      -137.80846572    159.402387   -0.62148   -0.00510    0.00000    6    diag
    8      0.516D-04      0.498D-05      -137.80846574    159.402215   -0.62147   -0.00516    0.00000    7    diag
    9      0.108D-04      0.901D-06      -137.80846574    159.402236   -0.62148   -0.00519    0.00000    8    diag
   10      0.207D-05      0.187D-06      -137.80846574    159.402234   -0.62149   -0.00520    0.00000    9    orth
   11      0.519D-06      0.472D-07      -137.80846574    159.402232   -0.62149   -0.00520    0.00000    9    diag
   12      0.133D-06      0.100D-07      -137.80846574    159.402232   -0.62149   -0.00520    0.00000    9    diag
   13      0.221D-07      0.227D-08      -137.80846574    159.402232   -0.62149   -0.00520    0.00000    9    diag
   14      0.490D-08      0.584D-09      -137.80846574    159.402232   -0.62149   -0.00520    0.00000    9    diag
   15      0.135D-08      0.124D-09      -137.80846574    159.402232   -0.62149   -0.00520    0.00000    9    diag
   16      0.171D-09      0.394D-10      -137.80846574    159.402232   -0.62149   -0.00520    0.00000    9    diag
   17      0.664D-10      0.706D-11      -137.80846574    159.402232   -0.62149   -0.00520    0.00000    0    orth

 Final occupancy:   7   1

 !RHF STATE  1.1 Energy              -137.808465740214
 Nuclear energy                        27.86553066
 One-electron energy                 -245.37511249
 Two-electron energy                   79.70111609
 Virial quotient                       -1.00038665
 !RHF STATE  1.1 Dipole moment         -0.62148556    -0.00519712     0.00000000
 Dipole moment /Debye                  -1.57955528    -0.01320890     0.00000000

 Orbital energies:

         1.1          2.1          3.1          4.1          5.1          6.1          7.1          8.1          9.1
    -26.374116   -11.365910    -1.713763    -0.939886    -0.784244    -0.677206    -0.396590     0.070373     0.082700

         1.2          2.2          3.2
     -0.734727     0.048191     0.128803


 HOMO      7.1    -0.396590 =     -10.7917eV
 LUMO      2.2     0.048191 =       1.3113eV
 LUMO-HOMO         0.444780 =      12.1031eV


 **********************************************************************************************************************************
 DATASETS  * FILE   NREC   LENGTH (MB)   RECORD NAMES
              1      19       42.18       500      610      700      900      950      970     1000      129      960     1100   
                                          VAR    BASINP    GEOM    SYMINP    ZMAT    AOBASIS   BASIS     P2S    ABASIS      S 
                                         1400     1410     1200     1210     1080     1600     1650     1300     1700   
                                           T        V       H0       H01     AOSYM     SMH    MOLCAS    ERIS     OPER   

              2       4        2.84       700     1000      520     2100   
                                         GEOM     BASIS   MCVARS     RHF  

 PROGRAMS   *        TOTAL    HF-SCF       INT
 CPU TIMES  *         1.27      0.26      0.88
 REAL TIME  *         2.97 SEC
 DISK USED  *        74.32 MB
 **********************************************************************************************************************************


 PROGRAM * CCSD (Closed-shell coupled cluster)     Authors: C. Hampel, H.-J. Werner, 1991, M. Deegan, P.J. Knowles, 1992

                                  CCSD-F12 implementation by  H.-J. Werner, 2007

                   Density fitting integral evaluation by F.R. Manby, 2003,2007, G. Knizia, 2010


 Basis set AUG-CC-PVDZ/JKFIT generated.  Number of basis functions:   204 
 Basis set CC-PVDZ-F12/OPTRI generated.  Number of basis functions:   154 
 Basis set AUG-CC-PVDZ/MP2FIT generated. Number of basis functions:   167 

 Convergence thresholds:  THRVAR = 1.00D-16  THRDEN = 1.00D-12

 CCSD(T)     terms to be evaluated (factor= 1.000)


 Number of core orbitals:           2 (   2   0 )
 Number of closed-shell orbitals:   6 (   5   1 )
 Number of external orbitals:      61 (  42  19 )

 Molecular orbitals read from record     2100.2  Type=RHF/CANONICAL (state 1.1)

 MP2-F12 correlation treatment (H.-J. Werner, 2006)
 ==================================================

 Using MP2-F12 with ansatz 3C(FIX)

 Using projected zeroth-order Hamiltonian (+Z)

 FOCKRIB=T FOCKRIC=T FOCKRIP=T CABSP=T CABSA=T CABSK=T CABSF=T GBC=F EBC=F DMAT=T NOFIK=T NOPAO=1 SOLVE=-1  USEPAO=0
 EXCH_A= T EXCH_B= F EXCH_C= F EXCH_P= F

 Geminal basis:    OPTFULL  GEM_TYPE=SLATER  BETA=1.0  NGEM=6

 Optimizing Gaussian exponents for each gem_beta

 Geminal optimization for beta= 1.0000
 Weight function:   m=0, omega= 1.4646

 Augmented Hessian optimization of geminal fit. Trust ratio= 0.40000
 Convergence reached after   2 iterations. Final gradient= 8.66D-16, Step= 4.23D-06, Delta= 1.28D-09

 Alpha:                 0.19532     0.81920     2.85917     9.50073    35.69989   197.79328
 Coeff:                 0.27070     0.30552     0.18297     0.10986     0.06810     0.04224


 Symmetry turned off. Reference energy:       -137.808465740215

 All pairs explicitly correlated. Number of r12-pairs:           21

 Excluding core orbitals from MO domains

 AO(A)-basis ORBITAL           loaded. Number of functions:      69
 RI(R)-basis CC-PVDZ-F12/OPTRI loaded. Number of functions:     154
 DF-basis AUG-CC-PVDZ/JKFIT    loaded. Number of functions:     204

 Screening thresholds:   THRAO=  1.00D-10  THRMO=  1.00D-10  THRPROD=  1.00D-10
                         THRSW=  1.00D-07  THROV=  1.00D-12  THRAOF12= 1.00D-08

 CPU time for Fock operators                      0.90 sec

 Construction of ABS:
 Smallest eigenvalue of S          3.65E-03  (threshold= 1.00E-08)
 Ratio eigmin/eigmax               7.68E-04  (threshold= 1.00E-09)
 Smallest eigenvalue of S kept     3.65E-03  (threshold= 3.65E-03, 0 functions deleted, 154 kept)

 Construction of CABS:
 Smallest eigenvalue of S          9.69E-06  (threshold= 1.00E-08)
 Ratio eigmin/eigmax               9.69E-06  (threshold= 1.00E-09)
 Smallest eigenvalue of S kept     9.69E-06  (threshold= 9.69E-06, 0 functions deleted, 154 kept)

 CPU time for CABS singles                        0.01 sec

 CABS-singles contribution of  -0.00662755 patched into reference energy.
 New reference energy        -137.81509329

 AO(A)-basis ORBITAL           loaded. Number of functions:      69
 RI(R)-basis CC-PVDZ-F12/OPTRI loaded. Number of functions:     154
 DF-basis AUG-CC-PVDZ/MP2FIT   loaded. Number of functions:     167

 Screening thresholds:   THRAO=  1.00D-10  THRMO=  1.00D-10  THRPROD=  1.00D-10
                         THRSW=  1.00D-07  THROV=  1.00D-12  THRAOF12= 1.00D-08

 CPU time for 3-index integral evaluation         0.38 sec
 CPU time for first  half transformation          0.04 sec ( 3799.1 MFLOP/sec)
 CPU time for sorting                             0.01 sec
 CPU time for fitting                             0.01 sec ( 8266.3 MFLOP/sec)
 CPU time for assembly                            0.04 sec (19371.9 MFLOP/sec)
 CPU time for tranop_f12                          0.05 sec (20899.9 MFLOP/sec)
 CPU time for f12 integrals (total)               1.19 sec, Elapsed time:      1.26 sec
 CPU time for f12 matrices (total)                0.01 sec, Elapsed time:      0.02 sec

 Diagonal F12 approximation with fixed coefficients:  TSING= 0.500,  TTRIP= 0.250 (scaled by -1/beta)

 DF-MP2-F12 energy corrections:
 ==============================
 Approx.                                    Singlet             Triplet             Total
 DF-MP2-F12/3*C(DX,FIX)                -0.078307852253     -0.016363229498     -0.094671081751
 DF-MP2-F12/3*C(FIX)                   -0.068989872201     -0.015371053595     -0.084360925796
 DF-MP2-F12/3C(FIX)                    -0.069684796760     -0.016174574208     -0.085859370968

 DF-MP2-F12 correlation energies:
 ================================
 Approx.                                    Singlet             Triplet             Ecorr            Total Energy
 DF-MP2                                -0.222714634478     -0.131368798771     -0.354083433249   -138.169176722429
 DF-MP2-F12/3*C(DX,FIX)                -0.301022486731     -0.147732028268     -0.448754514999   -138.263847804180
 DF-MP2-F12/3*C(FIX)                   -0.291704506679     -0.146739852366     -0.438444359045   -138.253537648226
 DF-MP2-F12/3C(FIX)                    -0.292399431238     -0.147543372979     -0.439942804217   -138.255036093398

 SCS-DF-MP2 energies (F_SING= 1.20000  F_TRIP= 0.62222  F_PARALLEL= 0.33333):
 ============================================================================
 SCS-DF-MP2                            -0.348998147275   -138.164091436456
 SCS-DF-MP2-F12/3*C(DX,FIX)            -0.453149135000   -138.268242424181
 SCS-DF-MP2-F12/3*C(FIX)               -0.441350205042   -138.256443494223
 SCS-DF-MP2-F12/3C(FIX)                -0.442684082894   -138.257777372075

 Symmetry restored.
 Symmetry transformation completed.

 Number of N-1 electron functions:               6
 Number of N-2 electron functions:              21
 Number of singly external CSFs:               229
 Number of doubly external CSFs:             35788
 Total number of CSFs:                       36018

 Length of J-op  integral file:              15.24 MB
 Length of K-op  integral file:              18.55 MB
 Length of 3-ext integral record:             0.00 MB

 Memory could be reduced to 1.16 Mwords without degradation in triples

 Integral transformation finished. Total CPU:   0.03 sec, npass=  1  Memory used:   0.52 MW

 Reference energy:                   -137.81509329

 Adding F12 terms to K(Cij), methodcc=6,  factor= 1.0

 ITER.      SQ.NORM     CORR.ENERGY   TOTAL ENERGY   ENERGY CHANGE        DEN1      VAR(S)    VAR(P)  DIIS     TIME  TIME/IT
   1      1.09157618    -0.36074748  -138.17584076    -0.00657005     0.00468335  0.25D-02  0.21D-02  1  1     2.23     0.05
   2      1.10080709    -0.36149908  -138.17659237    -0.00075160    -0.00889504  0.75D-04  0.49D-03  2  2     2.28     0.05
   3      1.10694439    -0.36225637  -138.17734965    -0.00075729    -0.00245280  0.79D-04  0.77D-04  3  3     2.33     0.05
   4      1.11059313    -0.36243596  -138.17752925    -0.00017960    -0.00126134  0.61D-05  0.20D-04  4  4     2.39     0.05
   5      1.11248030    -0.36248082  -138.17757411    -0.00004485    -0.00032510  0.69D-06  0.38D-05  5  5     2.44     0.05
   6      1.11318530    -0.36247741  -138.17757070     0.00000341    -0.00004941  0.13D-06  0.60D-06  6  6     2.49     0.05
   7      1.11333439    -0.36248202  -138.17757531    -0.00000461    -0.00001340  0.66D-07  0.79D-07  6  2     2.53     0.05
   8      1.11334131    -0.36248345  -138.17757674    -0.00000143     0.00000547  0.85D-08  0.12D-07  6  1     2.58     0.05
   9      1.11334344    -0.36248416  -138.17757745    -0.00000071     0.00000027  0.26D-08  0.15D-08  6  4     2.63     0.06
  10      1.11334324    -0.36248450  -138.17757779    -0.00000034     0.00000052  0.27D-09  0.22D-09  6  3     2.68     0.06
  11      1.11334157    -0.36248450  -138.17757779     0.00000000     0.00000016  0.58D-10  0.28D-10  6  6     2.73     0.06
  12      1.11334166    -0.36248454  -138.17757782    -0.00000004     0.00000011  0.67D-11  0.41D-11  6  5     2.78     0.06
  13      1.11334147    -0.36248454  -138.17757783    -0.00000001     0.00000004  0.16D-11  0.90D-12  6  2     2.82     0.06
  14      1.11334133    -0.36248455  -138.17757784    -0.00000001     0.00000003  0.17D-12  0.25D-12  6  1     2.87     0.06
  15      1.11334120    -0.36248455  -138.17757784    -0.00000000     0.00000001  0.18D-13  0.55D-13  6  4     2.92     0.06
  16      1.11334114    -0.36248455  -138.17757784    -0.00000000     0.00000001  0.31D-14  0.14D-13  6  3     2.97     0.06
  17      1.11334110    -0.36248455  -138.17757784    -0.00000000     0.00000001  0.22D-14  0.21D-14  6  6     3.02     0.06
  18      1.11334110    -0.36248455  -138.17757784     0.00000000     0.00000000  0.36D-15  0.28D-15  6  5     3.06     0.06
  19      1.11334110    -0.36248455  -138.17757784     0.00000000    -0.00000000  0.12D-15  0.49D-16  6  2     3.11     0.06
  20      1.11334110    -0.36248455  -138.17757784     0.00000000    -0.00000000  0.11D-16  0.96D-17  6  1     3.15     0.06
  21      1.11334110    -0.36248455  -138.17757784     0.00000000    -0.00000000  0.39D-17  0.18D-17  6  4     3.20     0.06
  22      1.11334110    -0.36248455  -138.17757784     0.00000000    -0.00000000  0.72D-18  0.37D-18  6  3     3.25     0.06
  23      1.11334110    -0.36248455  -138.17757784     0.00000000     0.00000000  0.15D-18  0.96D-19  6  6     3.29     0.06
  24      1.11334110    -0.36248455  -138.17757784     0.00000000     0.00000000  0.22D-19  0.34D-19  6  5     3.34     0.06
  25      1.11334110    -0.36248455  -138.17757784     0.00000000    -0.00000000  0.31D-20  0.12D-19  6  2     3.40     0.06

 Norm of t1 vector:      0.07581207      S-energy:     0.00000000      T1 diagnostic:  0.01547507
                                                                       D1 diagnostic:  0.04481284

 Adding energy correction from Wij-K(Fij), methodcc=6  factor= 1.0

  CCSD correlation energy              -0.362484549282
  MP2-F12 correction (uncoupled)       -0.080974751492
  C*T doubles correction               -0.002738361271
  f12b correction                       0.010115306532


 Total CPU time for triples:      0.27 sec


 RESULTS
 =======

  Reference energy                   -137.808465740215
  F12 singles correction               -0.006627548966

 F12 singles corrections added to reference energy

  New reference energy               -137.815093289181

  F12a singlet correction              -0.068271076748
  F12a triplet correction              -0.015442036015
  F12a total correction                -0.083713112763

 F12a corrections for ansatz F12/3C(FIX) added to CCSD energy

  CCSD-F12a singlet pair energy        -0.312271638311
  CCSD-F12a triplet pair energy        -0.133926023735
  CCSD-F12a correlation energy         -0.446197662045

  Triples (T) contribution             -0.012151476224
  Total correlation energy             -0.458349138268

  CCSD-F12a total energy             -138.261290951226
  CCSD[T]-F12a energy                -138.274430372637
  CCSD-T-F12a energy                 -138.273106623642
 !CCSD(T)-F12a total energy          -138.273442427449

 F12b corrections for ansatz F12/3C(FIX) added to CCSD(T)-F12a energy

  CCSD-F12b singlet pair energy        -0.303130083972
  CCSD-F12b triplet pair energy        -0.132952271542
  CCSD-F12b correlation energy         -0.436082355513

  Triples (T) contribution             -0.012151476224
  Total correlation energy             -0.448233831736

  CCSD-F12b total energy             -138.251175644693
  CCSD[T]-F12b energy                -138.264315066105
  CCSD-T-F12b energy                 -138.262991317109
 !CCSD(T)-F12b total energy          -138.263327120917

 Timing summary (sec):

 STEP                 CPU(USER)    SYS     CPU(TOT)    WALL
 Transformation          0.03      0.02      0.05      0.05
 CCSD iterations         1.24      0.17      1.41      1.43
 Triples                 0.27      0.00      0.27      0.27
 MP2-F12                 2.13      0.12      2.25      2.66
 F12b energy             0.02      0.01      0.03      0.03

 Program statistics:

 Available memory in ccsd:              1999999744
 Min. memory needed in ccsd:                136839
 Max. memory used in ccsd:                  163083
 Max. memory used in cckext:                208330 (26 integral passes)



 **********************************************************************************************************************************
 DATASETS  * FILE   NREC   LENGTH (MB)   RECORD NAMES
              1      20       45.77       500      610      700      900      950      970     1000      129      960     1100   
                                          VAR    BASINP    GEOM    SYMINP    ZMAT    AOBASIS   BASIS     P2S    ABASIS      S 
                                         1400     1410     1200     1210     1080     1600     1650     1300     1700     1380   
                                           T        V       H0       H01     AOSYM     SMH    MOLCAS    ERIS     OPER     JKOP   

              2       6        2.90       700     1000      520     2100     7360     7350   
                                         GEOM     BASIS   MCVARS     RHF    F12ABS    EF12   

 PROGRAMS   *        TOTAL   CCSD(T)    HF-SCF       INT
 CPU TIMES  *         4.99      3.72      0.26      0.88
 REAL TIME  *         7.45 SEC
 DISK USED  *        97.74 MB
 **********************************************************************************************************************************
 SETTING EE(1)          =      -138.26332712  AU                              


 Computing numerical gradient using default procedure for command CCSD(T)-F12

 *** Long output written to logfile /home/mdavis/f12eom_optimizer/tests/slurm/molpro_step.log ***


 Running default procedure: HF-SCF000  CCSD(T)-F12


 Generated   3 symmetrical displacements

 Numerical gradient for CCSD(T)-F12

 Total Energy          -138.26332712  Dipole moments:    0.000000    0.000000    0.000000

 Atom          dE/dx               dE/dy               dE/dz                  d2E/dx2             d2E/dy2             d2E/dz2
   1        -0.005694919         0.009359795         0.000000000            0.000000000         0.000000000         0.000000000
   2        -0.002864004        -0.045735860         0.000000000            0.000000000         0.000000000         0.000000000
   3         0.008558923         0.036376065         0.000000000            0.000000000         0.000000000         0.000000000

 Recomputing wavefunction at initial geometry


 **********************************************************************************************************************************
 DATASETS  * FILE   NREC   LENGTH (MB)   RECORD NAMES
              1      21       45.99       500      610      700      900      701      950      970     1000      129      960   
                                          VAR    BASINP    GEOM    SYMINP    GEOM     ZMAT    AOBASIS   BASIS     P2S    ABASIS    
                                         1100     1400     1410     1200     1210     1080     1600     1650     1300     1700   
                                           S        T        V       H0       H01     AOSYM     SMH    MOLCAS    ERIS     OPER   
                                         1380   
                                         JKOP   

              2       8        3.12       700     1000      520     2100     7360     7350      701     5600   
                                         GEOM     BASIS   MCVARS     RHF    F12ABS    EF12     GEOM     GINFO   

 PROGRAMS   *        TOTAL    FORCES    HF-SCF       INT   CCSD(T)    HF-SCF       INT
 CPU TIMES  *        40.23      3.76      0.04     31.43      3.72      0.26      0.88
 REAL TIME  *        50.45 SEC
 DISK USED  *       100.73 MB
 **********************************************************************************************************************************
 EE(1)            =     -138.263327120917 AU
 GRADX(1:3)       = [     -0.005694918590   -0.002864004134    0.008558922725] AU
 GRADY(1:3)       = [      0.009359795094   -0.045735860127    0.036376065033] AU
 GRADZ(1:3)       = [      0.000000000000    0.000000000000    0.000000000000] AU

 CCSD(T)-F12/cc-pVDZ-F12 energy=   -138.263327120917

     CCSD(T)-F12          HF-SCF     CCSD(T)-F12          HF-SCF
   -138.26332712   -137.80846574   -138.26332712   -137.80846574
 **********************************************************************************************************************************
 Molpro calculation terminated
