
 Primary working directories    : /scratch/mdavis/molpro_step_2022-08-17_16_11_31/molpro.6qMldg2PCD
 Secondary working directories  : /scratch/mdavis/molpro_step_2022-08-17_16_11_31/molpro.6qMldg2PCD
 Wavefunction directory         : /home/mdavis/f12eom_optimizer/tests/slurm/./
 Main file repository           : /scratch/mdavis/molpro_step_2022-08-17_16_11_31/molpro.6qMldg2PCD/

 id        : olemiss

 Nodes     nprocs
 node17       1

 Using customized tuning parameters: mindgm=1; mindgv=20; mindgc=4; mindgr=1; noblas=0; minvec=7
 default implementation of scratch files=df  


 Variables initialized (945), CPU time= 0.00 sec
 ***,part of geometry opt run
 memory, 2000.0, m;
 gthresh,energy=1.d-12,zero=1.d-22,oneint=1.d-22,twoint=1.d-22;
 gthresh,optgrad=1.d-8,optstep=1.d-8;
 nocompress;
 bohr;
 geometry={
      3
 Fragment 1
     H  -1.2400821834   1.8682183999   0.0000000000
     C   0.6028236048   1.0671045844   0.0000000000
     F  -0.0491294772  -1.2772469951   0.0000000000
      }
 
 set,charge=0
 set,spin=0
 basis=vdz-f12
 hf,maxit=500;wf,charge=0,spin=0;accu,20;
 ccsd(t)-f12,maxit=250;wf,charge=0,spin=0;orbital,IGNORE_ERROR;
 ee(1)=energy(2)
 forces,varsav
 SHOW[f18.12],ee(1)
 SHOW[f18.12],GRADX
 SHOW[f18.12],GRADY
 SHOW[f18.12],GRADZ
 Commands  initialized (802), CPU time= 0.01 sec, 659 directives.
 Default parameters read. Elapsed time= 0.10 sec

 Checking input...
 Passed
1


                                         ***  PROGRAM SYSTEM MOLPRO  ***
                                       Copyright, TTI GmbH Stuttgart, 2015
                                    Version 2020.1 linked Oct  6 2020 12:04:11


 **********************************************************************************************************************************
 LABEL *   part of geometry opt run                                                      
  64 bit serial version                                                                  DATE: 17-Aug-22          TIME: 16:11:31  
 **********************************************************************************************************************************

 SHA1:             8c27446f6450a7499e38f603e13c65f775101d37
 **********************************************************************************************************************************

 Memory per process:      2000 MW
 Total memory per node:   2000 MW

 GA preallocation disabled
 GA check disabled

 Variable memory set to 2000.0 MW


 THRESHOLDS:

 ZERO    =  1.00D-22  ONEINT  =  1.00D-22  TWOINT  =  1.00D-22  PREFAC  =  1.00D-14  XXXXXX  =  1.00D-09  EORDER  =  1.00D-04
 ENERGY  =  1.00D-12  ETEST   =  0.00D+00  EDENS   =  0.00D+00  THRDEDEF=  1.00D-06  GRADIENT=  1.00D-05  STEP    =  1.00D-03
 ORBITAL =  1.00D-05  CIVEC   =  1.00D-05  COEFF   =  1.00D-04  PRINTCI =  5.00D-02  PUNCHCI =  9.90D+01  OPTGRAD =  3.00D-04
 OPTENERG=  1.00D-06  OPTSTEP =  3.00D-04  THRGRAD =  1.00D-10  COMPRESS=  1.00D-11  VARMIN  =  1.00D-07  VARMAX  =  1.00D-03
 THRDOUB =  0.00D+00  THRDIV  =  1.00D-05  THRRED  =  1.00D-07  THRPSP  =  1.00D+00  THRDC   =  1.00D-10  THRCS   =  1.00D-10
 THRNRM  =  1.00D-08  THREQ   =  0.00D+00  THRDE   =  1.00D+00  THRREF  =  1.00D-05  SPARFAC =  1.00D+00  THRDLP  =  1.00D-07
 THRDIA  =  1.00D-10  THRDLS  =  1.00D-07  THRGPS  =  0.00D+00  THRKEX  =  0.00D+00  THRDIS  =  2.00D-01  THRVAR  =  1.00D-10
 THRLOC  =  1.00D-06  THRGAP  =  1.00D-06  THRLOCT = -1.00D+00  THRGAPT = -1.00D+00  THRORB  =  1.00D-06  THRMLTP =  0.00D+00
 THRCPQCI=  1.00D-10  KEXTA   =  0.00D+00  THRCOARS=  0.00D+00  SYMTOL  =  1.00D-06  GRADTOL =  1.00D-06  THROVL  =  1.00D-08
 THRORTH =  1.00D-08  GRID    =  1.00D-06  GRIDMAX =  1.00D-03  DTMAX   =  0.00D+00  THROCCDE=  1.00D-01  THROCCDE=  1.00D-01
 THRPRINT=  2.50D-01


 THRESHOLDS:

 ZERO    =  1.00D-22  ONEINT  =  1.00D-22  TWOINT  =  1.00D-22  PREFAC  =  1.00D-14  XXXXXX  =  1.00D-09  EORDER  =  1.00D-04
 ENERGY  =  1.00D-12  ETEST   =  0.00D+00  EDENS   =  0.00D+00  THRDEDEF=  1.00D-06  GRADIENT=  1.00D-05  STEP    =  1.00D-03
 ORBITAL =  1.00D-05  CIVEC   =  1.00D-05  COEFF   =  1.00D-04  PRINTCI =  5.00D-02  PUNCHCI =  9.90D+01  OPTGRAD =  1.00D-08
 OPTENERG=  1.00D-06  OPTSTEP =  1.00D-08  THRGRAD =  1.00D-10  COMPRESS=  1.00D-11  VARMIN  =  1.00D-07  VARMAX  =  1.00D-03
 THRDOUB =  0.00D+00  THRDIV  =  1.00D-05  THRRED  =  1.00D-07  THRPSP  =  1.00D+00  THRDC   =  1.00D-10  THRCS   =  1.00D-10
 THRNRM  =  1.00D-08  THREQ   =  0.00D+00  THRDE   =  1.00D+00  THRREF  =  1.00D-05  SPARFAC =  1.00D+00  THRDLP  =  1.00D-07
 THRDIA  =  1.00D-10  THRDLS  =  1.00D-07  THRGPS  =  0.00D+00  THRKEX  =  0.00D+00  THRDIS  =  2.00D-01  THRVAR  =  1.00D-10
 THRLOC  =  1.00D-06  THRGAP  =  1.00D-06  THRLOCT = -1.00D+00  THRGAPT = -1.00D+00  THRORB  =  1.00D-06  THRMLTP =  0.00D+00
 THRCPQCI=  1.00D-10  KEXTA   =  0.00D+00  THRCOARS=  0.00D+00  SYMTOL  =  1.00D-06  GRADTOL =  1.00D-06  THROVL  =  1.00D-08
 THRORTH =  1.00D-08  GRID    =  1.00D-06  GRIDMAX =  1.00D-03  DTMAX   =  0.00D+00  THROCCDE=  1.00D-01  THROCCDE=  1.00D-01
 THRPRINT=  2.50D-01


 Input parameters for SORTINT:

 COMPRESS =    0.000000
 C_FINAL  =    1.000000
 DEBUG    =   -1.000000
 C_SORT1  =    0.000000
 C_SEWARD =    0.000000
 THRESH   =    0.000000
 IO       =  molpro                                                                                                                          
 SPRI     =    0.000000
 ZUNIT=BOHR


 Geometry recognized as XYZ

 SETTING CHARGE         =     0.00000000D+00                                  
 SETTING SPIN           =     0.00000000D+00                                  
 SETTING BASIS          =    VDZ-F12


 Recomputing integrals since basis changed


 Using spherical harmonics

 Library entry H      S cc-pVDZ-F12          selected for orbital group  1
 Library entry H      P cc-pVDZ-F12          selected for orbital group  1
 Library entry C      S cc-pVDZ-F12          selected for orbital group  2
 Library entry C      P cc-pVDZ-F12          selected for orbital group  2
 Library entry C      D cc-pVDZ-F12          selected for orbital group  2
 Library entry F      S cc-pVDZ-F12          selected for orbital group  3
 Library entry F      P cc-pVDZ-F12          selected for orbital group  3
 Library entry F      D cc-pVDZ-F12          selected for orbital group  3


 PROGRAM * SEWARD (Integral evaluation for generally contracted gaussian basis sets)     Author: Roland Lindh, 1990

 Geometry written to block  1 of record 700


 Point group  Cs  



 ATOMIC COORDINATES

 NR  ATOM    CHARGE       X              Y              Z

   1  H       1.00   -1.240082183    1.868218400    0.000000000
   2  C       6.00    0.602823605    1.067104584    0.000000000
   3  F       9.00   -0.049129477   -1.277246995    0.000000000

 Bond lengths in Bohr (Angstrom)

 1-2  2.009498716  2-3  2.433316081
     ( 1.063380926)     ( 1.287655417)

 Bond angles

  1-2-3   97.95365729

 NUCLEAR CHARGE:                   16
 NUMBER OF PRIMITIVE AOS:          93
 NUMBER OF SYMMETRY AOS:           89
 NUMBER OF CONTRACTIONS:           69   (   49A'  +   20A"  )
 NUMBER OF INNER CORE ORBITALS:     0   (    0A'  +    0A"  )
 NUMBER OF OUTER CORE ORBITALS:     2   (    2A'  +    0A"  )
 NUMBER OF VALENCE ORBITALS:        9   (    7A'  +    2A"  )


 NUCLEAR REPULSION ENERGY   27.85363755

 Eigenvalues of metric

         1 0.158E-02 0.308E-02 0.320E-02 0.332E-02 0.333E-02 0.468E-02 0.469E-02 0.892E-02
         2 0.330E-02 0.468E-02 0.782E-01 0.924E-01 0.124E+00 0.170E+00 0.247E+00 0.384E+00


 Contracted 2-electron integrals neglected if value below      1.0D-22

        1426049. INTEGRALS WRITTEN OUT IN     349 BLOCKS ON RECORD 1290 OF FILE 1


 NUMBER OF SORTED TWO-ELECTRON INTEGRALS:    1544830.     BUFFER LENGTH:  32768
 NUMBER OF SEGMENTS:   1  SEGMENT LENGTH:    1544830      RECORD LENGTH: 524288

 Memory used in sort:       2.10 MW

 SORT1 READ     1426049. AND WROTE     1455925. INTEGRALS IN      5 RECORDS. CPU TIME:     0.02 SEC, REAL TIME:     0.04 SEC
 SORT2 READ     1455925. AND WROTE     1544830. INTEGRALS IN      1 RECORDS. CPU TIME:     0.05 SEC, REAL TIME:     0.07 SEC

 FILE SIZES:   FILE 1:    53.0 MBYTE,  FILE 4:    21.0 MBYTE,   TOTAL:     74.0 MBYTE

 OPERATOR DM      FOR CENTER  0  COORDINATES:    0.000000    0.000000    0.000000


 **********************************************************************************************************************************
 DATASETS  * FILE   NREC   LENGTH (MB)   RECORD NAMES
              1      19       42.18       500      610      700      900      950      970     1000      129      960     1100   
                                          VAR    BASINP    GEOM    SYMINP    ZMAT    AOBASIS   BASIS     P2S    ABASIS      S 
                                         1400     1410     1200     1210     1080     1600     1650     1300     1700   
                                           T        V       H0       H01     AOSYM     SMH    MOLCAS    ERIS     OPER   

 PROGRAMS   *        TOTAL       INT
 CPU TIMES  *         1.02      0.89
 REAL TIME  *         2.64 SEC
 DISK USED  *        74.32 MB
 **********************************************************************************************************************************


 PROGRAM * RHF-SCF (CLOSED SHELL)       Authors: W. Meyer, H.-J. Werner


 NUMBER OF ELECTRONS:       8+    8-
 CONVERGENCE THRESHOLDS:    1.00E-10 (Density)    1.00E-13 (Energy)
 MAX. NUMBER OF ITERATIONS:      500
 INTERPOLATION TYPE:            DIIS
 INTERPOLATION STEPS:              2 (START)      1 (STEP)
 LEVEL SHIFTS:                  0.00 (CLOSED)  0.00 (OPEN) 



 Orbital guess generated from atomic densities. Full valence occupancy:    9   2

 Molecular orbital dump at record        2100.2

 Initial occupancy:   7   1

 ITERATION    DDIFF          GRAD             ENERGY        2-EL.EN.            DIPOLE MOMENTS         DIIS   ORB.
    1      0.000D+00      0.000D+00      -137.77991877    158.395564   -0.67193    0.09219    0.00000    0    start
    2      0.000D+00      0.988D-02      -137.80430036    159.372506   -0.65956    0.04527    0.00000    1    diag
    3      0.138D-01      0.353D-02      -137.80697167    159.663597   -0.61407    0.15134    0.00000    2    diag
    4      0.371D-02      0.114D-02      -137.80728226    159.466502   -0.61388    0.14801    0.00000    3    diag
    5      0.109D-02      0.308D-03      -137.80733168    159.531524   -0.61195    0.15934    0.00000    4    diag
    6      0.400D-03      0.734D-04      -137.80733677    159.532926   -0.61126    0.16181    0.00000    5    diag
    7      0.137D-03      0.246D-04      -137.80733729    159.533290   -0.61142    0.16208    0.00000    6    diag
    8      0.552D-04      0.502D-05      -137.80733731    159.533137   -0.61144    0.16199    0.00000    7    diag
    9      0.114D-04      0.972D-06      -137.80733731    159.533153   -0.61146    0.16196    0.00000    8    diag
   10      0.209D-05      0.228D-06      -137.80733731    159.533148   -0.61146    0.16194    0.00000    9    orth
   11      0.582D-06      0.514D-07      -137.80733731    159.533146   -0.61146    0.16194    0.00000    9    diag
   12      0.134D-06      0.106D-07      -137.80733731    159.533146   -0.61146    0.16194    0.00000    9    diag
   13      0.229D-07      0.259D-08      -137.80733731    159.533146   -0.61146    0.16194    0.00000    9    diag
   14      0.603D-08      0.691D-09      -137.80733731    159.533146   -0.61146    0.16194    0.00000    9    diag
   15      0.175D-08      0.117D-09      -137.80733731    159.533146   -0.61146    0.16194    0.00000    9    diag
   16      0.169D-09      0.345D-10      -137.80733731    159.533146   -0.61146    0.16194    0.00000    9    diag
   17      0.666D-10      0.753D-11      -137.80733731    159.533146   -0.61146    0.16194    0.00000    9    diag
   18      0.173D-10      0.136D-11      -137.80733731    159.533146   -0.61146    0.16194    0.00000    0    orth

 Final occupancy:   7   1

 !RHF STATE  1.1 Energy              -137.807337313707
 Nuclear energy                        27.85363755
 One-electron energy                 -245.42754789
 Two-electron energy                   79.76657303
 Virial quotient                       -0.99976783
 !RHF STATE  1.1 Dipole moment         -0.61145977     0.16194280     0.00000000
 Dipole moment /Debye                  -1.55407393     0.41159058     0.00000000

 Orbital energies:

         1.1          2.1          3.1          4.1          5.1          6.1          7.1          8.1          9.1
    -26.362420   -11.360028    -1.696165    -0.944921    -0.778489    -0.670924    -0.412889     0.070352     0.082796

         1.2          2.2          3.2
     -0.721365     0.046352     0.126879


 HOMO      7.1    -0.412889 =     -11.2353eV
 LUMO      2.2     0.046352 =       1.2613eV
 LUMO-HOMO         0.459242 =      12.4966eV


 **********************************************************************************************************************************
 DATASETS  * FILE   NREC   LENGTH (MB)   RECORD NAMES
              1      19       42.18       500      610      700      900      950      970     1000      129      960     1100   
                                          VAR    BASINP    GEOM    SYMINP    ZMAT    AOBASIS   BASIS     P2S    ABASIS      S 
                                         1400     1410     1200     1210     1080     1600     1650     1300     1700   
                                           T        V       H0       H01     AOSYM     SMH    MOLCAS    ERIS     OPER   

              2       4        2.84       700     1000      520     2100   
                                         GEOM     BASIS   MCVARS     RHF  

 PROGRAMS   *        TOTAL    HF-SCF       INT
 CPU TIMES  *         1.26      0.24      0.89
 REAL TIME  *         2.98 SEC
 DISK USED  *        74.32 MB
 **********************************************************************************************************************************


 PROGRAM * CCSD (Closed-shell coupled cluster)     Authors: C. Hampel, H.-J. Werner, 1991, M. Deegan, P.J. Knowles, 1992

                                  CCSD-F12 implementation by  H.-J. Werner, 2007

                   Density fitting integral evaluation by F.R. Manby, 2003,2007, G. Knizia, 2010


 Basis set AUG-CC-PVDZ/JKFIT generated.  Number of basis functions:   204 
 Basis set CC-PVDZ-F12/OPTRI generated.  Number of basis functions:   154 
 Basis set AUG-CC-PVDZ/MP2FIT generated. Number of basis functions:   167 

 Convergence thresholds:  THRVAR = 1.00D-16  THRDEN = 1.00D-12

 CCSD(T)     terms to be evaluated (factor= 1.000)


 Number of core orbitals:           2 (   2   0 )
 Number of closed-shell orbitals:   6 (   5   1 )
 Number of external orbitals:      61 (  42  19 )

 Molecular orbitals read from record     2100.2  Type=RHF/CANONICAL (state 1.1)

 MP2-F12 correlation treatment (H.-J. Werner, 2006)
 ==================================================

 Using MP2-F12 with ansatz 3C(FIX)

 Using projected zeroth-order Hamiltonian (+Z)

 FOCKRIB=T FOCKRIC=T FOCKRIP=T CABSP=T CABSA=T CABSK=T CABSF=T GBC=F EBC=F DMAT=T NOFIK=T NOPAO=1 SOLVE=-1  USEPAO=0
 EXCH_A= T EXCH_B= F EXCH_C= F EXCH_P= F

 Geminal basis:    OPTFULL  GEM_TYPE=SLATER  BETA=1.0  NGEM=6

 Optimizing Gaussian exponents for each gem_beta

 Geminal optimization for beta= 1.0000
 Weight function:   m=0, omega= 1.4646

 Augmented Hessian optimization of geminal fit. Trust ratio= 0.40000
 Convergence reached after   2 iterations. Final gradient= 8.66D-16, Step= 4.23D-06, Delta= 1.28D-09

 Alpha:                 0.19532     0.81920     2.85917     9.50073    35.69989   197.79328
 Coeff:                 0.27070     0.30552     0.18297     0.10986     0.06810     0.04224


 Symmetry turned off. Reference energy:       -137.807337313707

 All pairs explicitly correlated. Number of r12-pairs:           21

 Excluding core orbitals from MO domains

 AO(A)-basis ORBITAL           loaded. Number of functions:      69
 RI(R)-basis CC-PVDZ-F12/OPTRI loaded. Number of functions:     154
 DF-basis AUG-CC-PVDZ/JKFIT    loaded. Number of functions:     204

 Screening thresholds:   THRAO=  1.00D-10  THRMO=  1.00D-10  THRPROD=  1.00D-10
                         THRSW=  1.00D-07  THROV=  1.00D-12  THRAOF12= 1.00D-08

 CPU time for Fock operators                      0.90 sec

 Construction of ABS:
 Smallest eigenvalue of S          2.45E-03  (threshold= 1.00E-08)
 Ratio eigmin/eigmax               5.00E-04  (threshold= 1.00E-09)
 Smallest eigenvalue of S kept     2.45E-03  (threshold= 2.45E-03, 0 functions deleted, 154 kept)

 Construction of CABS:
 Smallest eigenvalue of S          9.95E-06  (threshold= 1.00E-08)
 Ratio eigmin/eigmax               9.95E-06  (threshold= 1.00E-09)
 Smallest eigenvalue of S kept     9.95E-06  (threshold= 9.95E-06, 0 functions deleted, 154 kept)

 CPU time for CABS singles                        0.01 sec

 CABS-singles contribution of  -0.00634907 patched into reference energy.
 New reference energy        -137.81368639

 AO(A)-basis ORBITAL           loaded. Number of functions:      69
 RI(R)-basis CC-PVDZ-F12/OPTRI loaded. Number of functions:     154
 DF-basis AUG-CC-PVDZ/MP2FIT   loaded. Number of functions:     167

 Screening thresholds:   THRAO=  1.00D-10  THRMO=  1.00D-10  THRPROD=  1.00D-10
                         THRSW=  1.00D-07  THROV=  1.00D-12  THRAOF12= 1.00D-08

 CPU time for 3-index integral evaluation         0.39 sec
 CPU time for first  half transformation          0.01 sec (15196.5 MFLOP/sec)
 CPU time for second half transformation          0.01 sec (  774.3 MFLOP/sec)
 CPU time for assembly                            0.03 sec (25829.3 MFLOP/sec)
 CPU time for tranop_f12                          0.05 sec (20899.9 MFLOP/sec)
 CPU time for f12 integrals (total)               1.22 sec, Elapsed time:      1.29 sec
 CPU time for f12 matrices (total)                0.02 sec, Elapsed time:      0.02 sec

 Diagonal F12 approximation with fixed coefficients:  TSING= 0.500,  TTRIP= 0.250 (scaled by -1/beta)

 DF-MP2-F12 energy corrections:
 ==============================
 Approx.                                    Singlet             Triplet             Total
 DF-MP2-F12/3*C(DX,FIX)                -0.078475395620     -0.016403051340     -0.094878446960
 DF-MP2-F12/3*C(FIX)                   -0.069051274998     -0.015417730281     -0.084469005280
 DF-MP2-F12/3C(FIX)                    -0.069707484734     -0.016218619390     -0.085926104124

 DF-MP2-F12 correlation energies:
 ================================
 Approx.                                    Singlet             Triplet             Ecorr            Total Energy
 DF-MP2                                -0.222883839328     -0.131594252993     -0.354478092321   -138.168164480754
 DF-MP2-F12/3*C(DX,FIX)                -0.301359234948     -0.147997304333     -0.449356539281   -138.263042927714
 DF-MP2-F12/3*C(FIX)                   -0.291935114326     -0.147011983274     -0.438947097601   -138.252633486033
 DF-MP2-F12/3C(FIX)                    -0.292591324062     -0.147812872383     -0.440404196445   -138.254090584878

 SCS-DF-MP2 energies (F_SING= 1.20000  F_TRIP= 0.62222  F_PARALLEL= 0.33333):
 ============================================================================
 SCS-DF-MP2                            -0.349341475723   -138.163027864155
 SCS-DF-MP2-F12/3*C(DX,FIX)            -0.453718293523   -138.267404681955
 SCS-DF-MP2-F12/3*C(FIX)               -0.441796260118   -138.255482648551
 SCS-DF-MP2-F12/3C(FIX)                -0.443082042802   -138.256768431234

 Symmetry restored.
 Symmetry transformation completed.

 Number of N-1 electron functions:               6
 Number of N-2 electron functions:              21
 Number of singly external CSFs:               229
 Number of doubly external CSFs:             35788
 Total number of CSFs:                       36018

 Length of J-op  integral file:              15.24 MB
 Length of K-op  integral file:              18.55 MB
 Length of 3-ext integral record:             0.00 MB

 Memory could be reduced to 1.16 Mwords without degradation in triples

 Integral transformation finished. Total CPU:   0.03 sec, npass=  1  Memory used:   0.52 MW

 Reference energy:                   -137.81368639

 Adding F12 terms to K(Cij), methodcc=6,  factor= 1.0

 ITER.      SQ.NORM     CORR.ENERGY   TOTAL ENERGY   ENERGY CHANGE        DEN1      VAR(S)    VAR(P)  DIIS     TIME  TIME/IT
   1      1.09059999    -0.36076877  -138.17445516    -0.00619281     0.00511646  0.25D-02  0.21D-02  1  1     2.29     0.05
   2      1.09967947    -0.36142242  -138.17510881    -0.00065366    -0.00890180  0.76D-04  0.48D-03  2  2     2.34     0.05
   3      1.10570025    -0.36217302  -138.17585941    -0.00075059    -0.00238718  0.87D-04  0.74D-04  3  3     2.39     0.05
   4      1.10932174    -0.36234470  -138.17603109    -0.00017168    -0.00125281  0.66D-05  0.19D-04  4  4     2.43     0.05
   5      1.11122364    -0.36238382  -138.17607021    -0.00003912    -0.00033316  0.68D-06  0.33D-05  5  5     2.47     0.05
   6      1.11187242    -0.36237586  -138.17606225     0.00000796    -0.00004271  0.86D-07  0.50D-06  6  6     2.52     0.05
   7      1.11199506    -0.36237946  -138.17606585    -0.00000360    -0.00001177  0.52D-07  0.68D-07  6  2     2.57     0.05
   8      1.11199610    -0.36238070  -138.17606709    -0.00000124     0.00000597  0.74D-08  0.10D-07  6  1     2.62     0.06
   9      1.11200072    -0.36238119  -138.17606758    -0.00000049    -0.00000173  0.26D-08  0.13D-08  6  3     2.67     0.06
  10      1.11199657    -0.36238173  -138.17606812    -0.00000054     0.00000201  0.22D-09  0.23D-09  6  4     2.71     0.06
  11      1.11199516    -0.36238180  -138.17606819    -0.00000007     0.00000032  0.72D-10  0.24D-10  6  5     2.76     0.06
  12      1.11199432    -0.36238189  -138.17606828    -0.00000008     0.00000033  0.70D-11  0.54D-11  6  6     2.81     0.06
  13      1.11199365    -0.36238190  -138.17606829    -0.00000001     0.00000005  0.18D-11  0.70D-12  6  5     2.84     0.06
  14      1.11199343    -0.36238191  -138.17606830    -0.00000001     0.00000006  0.44D-13  0.14D-12  6  3     2.89     0.06
  15      1.11199342    -0.36238191  -138.17606830    -0.00000000    -0.00000000  0.89D-14  0.29D-13  6  2     2.94     0.06
  16      1.11199344    -0.36238191  -138.17606830    -0.00000000    -0.00000000  0.10D-14  0.42D-14  6  1     2.99     0.06
  17      1.11199346    -0.36238191  -138.17606830     0.00000000    -0.00000000  0.18D-15  0.68D-15  6  4     3.04     0.06
  18      1.11199347    -0.36238191  -138.17606830     0.00000000    -0.00000000  0.34D-16  0.73D-16  6  5     3.08     0.06
  19      1.11199347    -0.36238191  -138.17606830    -0.00000000    -0.00000000  0.41D-17  0.79D-17  6  6     3.13     0.06
  20      1.11199347    -0.36238191  -138.17606830     0.00000000    -0.00000000  0.13D-17  0.11D-17  6  2     3.18     0.06
  21      1.11199347    -0.36238191  -138.17606830    -0.00000000     0.00000000  0.11D-18  0.18D-18  6  3     3.23     0.06
  22      1.11199347    -0.36238191  -138.17606830    -0.00000000     0.00000000  0.17D-19  0.32D-19  6  1     3.28     0.06
  23      1.11199347    -0.36238191  -138.17606830    -0.00000000     0.00000000  0.13D-20  0.47D-20  6  4     3.33     0.06
  24      1.11199347    -0.36238191  -138.17606830    -0.00000000     0.00000000  0.25D-21  0.85D-21  6  5     3.38     0.06
  25      1.11199347    -0.36238191  -138.17606830     0.00000000     0.00000000  0.45D-22  0.21D-21  6  2     3.43     0.06

 Norm of t1 vector:      0.07784170      S-energy:    -0.00000000      T1 diagnostic:  0.01588937
                                                                       D1 diagnostic:  0.04723280

 Adding energy correction from Wij-K(Fij), methodcc=6  factor= 1.0

  CCSD correlation energy              -0.362381912871
  MP2-F12 correction (uncoupled)       -0.081138997888
  C*T doubles correction               -0.002696207548
  f12b correction                       0.010145900323


 Total CPU time for triples:      0.25 sec


 RESULTS
 =======

  Reference energy                   -137.807337313707
  F12 singles correction               -0.006349074726

 F12 singles corrections added to reference energy

  New reference energy               -137.813686388433

  F12a singlet correction              -0.068343890112
  F12a triplet correction              -0.015491315324
  F12a total correction                -0.083835205436

 F12a corrections for ansatz F12/3C(FIX) added to CCSD energy

  CCSD-F12a singlet pair energy        -0.312089189070
  CCSD-F12a triplet pair energy        -0.134127929237
  CCSD-F12a correlation energy         -0.446217118307

  Triples (T) contribution             -0.012154570610
  Total correlation energy             -0.458371688917

  CCSD-F12a total energy             -138.259903506739
  CCSD[T]-F12a energy                -138.273093899680
  CCSD-T-F12a energy                 -138.271711050167
 !CCSD(T)-F12a total energy          -138.272058077349

 F12b corrections for ansatz F12/3C(FIX) added to CCSD(T)-F12a energy

  CCSD-F12b singlet pair energy        -0.302922474942
  CCSD-F12b triplet pair energy        -0.133148743042
  CCSD-F12b correlation energy         -0.436071217984

  Triples (T) contribution             -0.012154570610
  Total correlation energy             -0.448225788594

  CCSD-F12b total energy             -138.249757606416
  CCSD[T]-F12b energy                -138.262947999358
  CCSD-T-F12b energy                 -138.261565149845
 !CCSD(T)-F12b total energy          -138.261912177027

 Timing summary (sec):

 STEP                 CPU(USER)    SYS     CPU(TOT)    WALL
 Transformation          0.03      0.01      0.04      0.05
 CCSD iterations         1.22      0.19      1.41      1.42
 Triples                 0.25      0.02      0.27      0.27
 MP2-F12                 2.18      0.10      2.28      2.57
 F12b energy             0.03      0.00      0.03      0.03

 Program statistics:

 Available memory in ccsd:              1999999744
 Min. memory needed in ccsd:                136839
 Max. memory used in ccsd:                  163083
 Max. memory used in cckext:                208330 (26 integral passes)



 **********************************************************************************************************************************
 DATASETS  * FILE   NREC   LENGTH (MB)   RECORD NAMES
              1      20       45.77       500      610      700      900      950      970     1000      129      960     1100   
                                          VAR    BASINP    GEOM    SYMINP    ZMAT    AOBASIS   BASIS     P2S    ABASIS      S 
                                         1400     1410     1200     1210     1080     1600     1650     1300     1700     1380   
                                           T        V       H0       H01     AOSYM     SMH    MOLCAS    ERIS     OPER     JKOP   

              2       6        2.90       700     1000      520     2100     7360     7350   
                                         GEOM     BASIS   MCVARS     RHF    F12ABS    EF12   

 PROGRAMS   *        TOTAL   CCSD(T)    HF-SCF       INT
 CPU TIMES  *         5.00      3.74      0.24      0.89
 REAL TIME  *         7.36 SEC
 DISK USED  *        97.74 MB
 **********************************************************************************************************************************
 SETTING EE(1)          =      -138.26191218  AU                              


 Computing numerical gradient using default procedure for command CCSD(T)-F12

 *** Long output written to logfile /home/mdavis/f12eom_optimizer/tests/slurm/molpro_step.log ***


 Running default procedure: HF-SCF000  CCSD(T)-F12


 Generated   3 symmetrical displacements

 Numerical gradient for CCSD(T)-F12

 Total Energy          -138.26191218  Dipole moments:    0.000000    0.000000    0.000000

 Atom          dE/dx               dE/dy               dE/dz                  d2E/dx2             d2E/dy2             d2E/dz2
   1         0.028620582        -0.028606611         0.000000000            0.000000000         0.000000000         0.000000000
   2        -0.024672501        -0.002891447         0.000000000            0.000000000         0.000000000         0.000000000
   3        -0.003948081         0.031498058         0.000000000            0.000000000         0.000000000         0.000000000

 Recomputing wavefunction at initial geometry


 **********************************************************************************************************************************
 DATASETS  * FILE   NREC   LENGTH (MB)   RECORD NAMES
              1      21       45.99       500      610      700      900      701      950      970     1000      129      960   
                                          VAR    BASINP    GEOM    SYMINP    GEOM     ZMAT    AOBASIS   BASIS     P2S    ABASIS    
                                         1100     1400     1410     1200     1210     1080     1600     1650     1300     1700   
                                           S        T        V       H0       H01     AOSYM     SMH    MOLCAS    ERIS     OPER   
                                         1380   
                                         JKOP   

              2       8        3.12       700     1000      520     2100     7360     7350      701     5600   
                                         GEOM     BASIS   MCVARS     RHF    F12ABS    EF12     GEOM     GINFO   

 PROGRAMS   *        TOTAL    FORCES    HF-SCF       INT   CCSD(T)    HF-SCF       INT
 CPU TIMES  *        40.36      3.77      0.03     31.55      3.74      0.24      0.89
 REAL TIME  *        50.53 SEC
 DISK USED  *       100.73 MB
 **********************************************************************************************************************************
 EE(1)            =     -138.261912177027 AU
 GRADX(1:3)       = [      0.028620582123   -0.024672501413   -0.003948080710] AU
 GRADY(1:3)       = [     -0.028606610953   -0.002891446925    0.031498057878] AU
 GRADZ(1:3)       = [      0.000000000000    0.000000000000    0.000000000000] AU

 CCSD(T)-F12/cc-pVDZ-F12 energy=   -138.261912177027

     CCSD(T)-F12          HF-SCF     CCSD(T)-F12          HF-SCF
   -138.26191218   -137.80733731   -138.26191218   -137.80733731
 **********************************************************************************************************************************
 Molpro calculation terminated
