
 Primary working directories    : /scratch/mdavis/molpro_step_2022-08-17_19_01_45/molpro.pGT1CPmfok
 Secondary working directories  : /scratch/mdavis/molpro_step_2022-08-17_19_01_45/molpro.pGT1CPmfok
 Wavefunction directory         : /home/mdavis/f12eom_optimizer/tests/slurm/./
 Main file repository           : /scratch/mdavis/molpro_step_2022-08-17_19_01_45/molpro.pGT1CPmfok/

 id        : olemiss

 Nodes     nprocs
 node17       1

 Using customized tuning parameters: mindgm=1; mindgv=20; mindgc=4; mindgr=1; noblas=0; minvec=7
 default implementation of scratch files=df  


 Variables initialized (945), CPU time= 0.00 sec
 ***,part of geometry opt run
 memory, 2000.0, m;
 gthresh,energy=1.d-12,zero=1.d-22,oneint=1.d-22,twoint=1.d-22;
 gthresh,optgrad=1.d-8,optstep=1.d-8;
 nocompress;
 bohr;
 geometry={
      3
 Fragment 1
     H  -1.5932231223   1.7224515549   0.0000000000
     C   0.4348460364   0.9956328564   0.0000000000
     F   0.2797298205  -1.3978045614   0.0000000000
      }
 
 set,charge=0
 set,spin=0
 basis=vdz-f12
 hf,maxit=500;wf,charge=0,spin=0;accu,20;
 ccsd(t)-f12,maxit=250;wf,charge=0,spin=0;orbital,IGNORE_ERROR;
 ee(1)=energy(2)
 forces,varsav
 SHOW[f18.12],ee(1)
 SHOW[f18.12],GRADX
 SHOW[f18.12],GRADY
 SHOW[f18.12],GRADZ
 Commands  initialized (802), CPU time= 0.01 sec, 659 directives.
 Default parameters read. Elapsed time= 0.18 sec

 Checking input...
 Passed
1


                                         ***  PROGRAM SYSTEM MOLPRO  ***
                                       Copyright, TTI GmbH Stuttgart, 2015
                                    Version 2020.1 linked Oct  6 2020 12:04:11


 **********************************************************************************************************************************
 LABEL *   part of geometry opt run                                                      
  64 bit serial version                                                                  DATE: 17-Aug-22          TIME: 19:01:46  
 **********************************************************************************************************************************

 SHA1:             8c27446f6450a7499e38f603e13c65f775101d37
 **********************************************************************************************************************************

 Memory per process:      2000 MW
 Total memory per node:   2000 MW

 GA preallocation disabled
 GA check disabled

 Variable memory set to 2000.0 MW


 THRESHOLDS:

 ZERO    =  1.00D-22  ONEINT  =  1.00D-22  TWOINT  =  1.00D-22  PREFAC  =  1.00D-14  XXXXXX  =  1.00D-09  EORDER  =  1.00D-04
 ENERGY  =  1.00D-12  ETEST   =  0.00D+00  EDENS   =  0.00D+00  THRDEDEF=  1.00D-06  GRADIENT=  1.00D-05  STEP    =  1.00D-03
 ORBITAL =  1.00D-05  CIVEC   =  1.00D-05  COEFF   =  1.00D-04  PRINTCI =  5.00D-02  PUNCHCI =  9.90D+01  OPTGRAD =  3.00D-04
 OPTENERG=  1.00D-06  OPTSTEP =  3.00D-04  THRGRAD =  1.00D-10  COMPRESS=  1.00D-11  VARMIN  =  1.00D-07  VARMAX  =  1.00D-03
 THRDOUB =  0.00D+00  THRDIV  =  1.00D-05  THRRED  =  1.00D-07  THRPSP  =  1.00D+00  THRDC   =  1.00D-10  THRCS   =  1.00D-10
 THRNRM  =  1.00D-08  THREQ   =  0.00D+00  THRDE   =  1.00D+00  THRREF  =  1.00D-05  SPARFAC =  1.00D+00  THRDLP  =  1.00D-07
 THRDIA  =  1.00D-10  THRDLS  =  1.00D-07  THRGPS  =  0.00D+00  THRKEX  =  0.00D+00  THRDIS  =  2.00D-01  THRVAR  =  1.00D-10
 THRLOC  =  1.00D-06  THRGAP  =  1.00D-06  THRLOCT = -1.00D+00  THRGAPT = -1.00D+00  THRORB  =  1.00D-06  THRMLTP =  0.00D+00
 THRCPQCI=  1.00D-10  KEXTA   =  0.00D+00  THRCOARS=  0.00D+00  SYMTOL  =  1.00D-06  GRADTOL =  1.00D-06  THROVL  =  1.00D-08
 THRORTH =  1.00D-08  GRID    =  1.00D-06  GRIDMAX =  1.00D-03  DTMAX   =  0.00D+00  THROCCDE=  1.00D-01  THROCCDE=  1.00D-01
 THRPRINT=  2.50D-01


 THRESHOLDS:

 ZERO    =  1.00D-22  ONEINT  =  1.00D-22  TWOINT  =  1.00D-22  PREFAC  =  1.00D-14  XXXXXX  =  1.00D-09  EORDER  =  1.00D-04
 ENERGY  =  1.00D-12  ETEST   =  0.00D+00  EDENS   =  0.00D+00  THRDEDEF=  1.00D-06  GRADIENT=  1.00D-05  STEP    =  1.00D-03
 ORBITAL =  1.00D-05  CIVEC   =  1.00D-05  COEFF   =  1.00D-04  PRINTCI =  5.00D-02  PUNCHCI =  9.90D+01  OPTGRAD =  1.00D-08
 OPTENERG=  1.00D-06  OPTSTEP =  1.00D-08  THRGRAD =  1.00D-10  COMPRESS=  1.00D-11  VARMIN  =  1.00D-07  VARMAX  =  1.00D-03
 THRDOUB =  0.00D+00  THRDIV  =  1.00D-05  THRRED  =  1.00D-07  THRPSP  =  1.00D+00  THRDC   =  1.00D-10  THRCS   =  1.00D-10
 THRNRM  =  1.00D-08  THREQ   =  0.00D+00  THRDE   =  1.00D+00  THRREF  =  1.00D-05  SPARFAC =  1.00D+00  THRDLP  =  1.00D-07
 THRDIA  =  1.00D-10  THRDLS  =  1.00D-07  THRGPS  =  0.00D+00  THRKEX  =  0.00D+00  THRDIS  =  2.00D-01  THRVAR  =  1.00D-10
 THRLOC  =  1.00D-06  THRGAP  =  1.00D-06  THRLOCT = -1.00D+00  THRGAPT = -1.00D+00  THRORB  =  1.00D-06  THRMLTP =  0.00D+00
 THRCPQCI=  1.00D-10  KEXTA   =  0.00D+00  THRCOARS=  0.00D+00  SYMTOL  =  1.00D-06  GRADTOL =  1.00D-06  THROVL  =  1.00D-08
 THRORTH =  1.00D-08  GRID    =  1.00D-06  GRIDMAX =  1.00D-03  DTMAX   =  0.00D+00  THROCCDE=  1.00D-01  THROCCDE=  1.00D-01
 THRPRINT=  2.50D-01


 Input parameters for SORTINT:

 COMPRESS =    0.000000
 C_FINAL  =    1.000000
 DEBUG    =   -1.000000
 C_SORT1  =    0.000000
 C_SEWARD =    0.000000
 THRESH   =    0.000000
 IO       =  molpro                                                                                                                          
 SPRI     =    0.000000
 ZUNIT=BOHR


 Geometry recognized as XYZ

 SETTING CHARGE         =     0.00000000D+00                                  
 SETTING SPIN           =     0.00000000D+00                                  
 SETTING BASIS          =    VDZ-F12


 Recomputing integrals since basis changed


 Using spherical harmonics

 Library entry H      S cc-pVDZ-F12          selected for orbital group  1
 Library entry H      P cc-pVDZ-F12          selected for orbital group  1
 Library entry C      S cc-pVDZ-F12          selected for orbital group  2
 Library entry C      P cc-pVDZ-F12          selected for orbital group  2
 Library entry C      D cc-pVDZ-F12          selected for orbital group  2
 Library entry F      S cc-pVDZ-F12          selected for orbital group  3
 Library entry F      P cc-pVDZ-F12          selected for orbital group  3
 Library entry F      D cc-pVDZ-F12          selected for orbital group  3


 PROGRAM * SEWARD (Integral evaluation for generally contracted gaussian basis sets)     Author: Roland Lindh, 1990

 Geometry written to block  1 of record 700


 Point group  Cs  



 ATOMIC COORDINATES

 NR  ATOM    CHARGE       X              Y              Z

   1  H       1.00   -1.593223122    1.722451555    0.000000000
   2  C       6.00    0.434846036    0.995632856    0.000000000
   3  F       9.00    0.279729821   -1.397804561    0.000000000

 Bond lengths in Bohr (Angstrom)

 1-2  2.154374604  2-3  2.398458612
     ( 1.140045944)     ( 1.269209639)

 Bond angles

  1-2-3  106.00855111

 NUCLEAR CHARGE:                   16
 NUMBER OF PRIMITIVE AOS:          93
 NUMBER OF SYMMETRY AOS:           89
 NUMBER OF CONTRACTIONS:           69   (   49A'  +   20A"  )
 NUMBER OF INNER CORE ORBITALS:     0   (    0A'  +    0A"  )
 NUMBER OF OUTER CORE ORBITALS:     2   (    2A'  +    0A"  )
 NUMBER OF VALENCE ORBITALS:        9   (    7A'  +    2A"  )


 NUCLEAR REPULSION ENERGY   27.77254550

 Eigenvalues of metric

         1 0.150E-02 0.300E-02 0.323E-02 0.330E-02 0.414E-02 0.468E-02 0.471E-02 0.914E-02
         2 0.330E-02 0.468E-02 0.780E-01 0.928E-01 0.137E+00 0.168E+00 0.245E+00 0.383E+00


 Contracted 2-electron integrals neglected if value below      1.0D-22

        1426049. INTEGRALS WRITTEN OUT IN     349 BLOCKS ON RECORD 1290 OF FILE 1


 NUMBER OF SORTED TWO-ELECTRON INTEGRALS:    1544830.     BUFFER LENGTH:  32768
 NUMBER OF SEGMENTS:   1  SEGMENT LENGTH:    1544830      RECORD LENGTH: 524288

 Memory used in sort:       2.10 MW

 SORT1 READ     1426049. AND WROTE     1455925. INTEGRALS IN      5 RECORDS. CPU TIME:     0.03 SEC, REAL TIME:     0.04 SEC
 SORT2 READ     1455925. AND WROTE     1544830. INTEGRALS IN      1 RECORDS. CPU TIME:     0.05 SEC, REAL TIME:     0.07 SEC

 FILE SIZES:   FILE 1:    53.0 MBYTE,  FILE 4:    21.0 MBYTE,   TOTAL:     74.0 MBYTE

 OPERATOR DM      FOR CENTER  0  COORDINATES:    0.000000    0.000000    0.000000


 **********************************************************************************************************************************
 DATASETS  * FILE   NREC   LENGTH (MB)   RECORD NAMES
              1      19       42.18       500      610      700      900      950      970     1000      129      960     1100   
                                          VAR    BASINP    GEOM    SYMINP    ZMAT    AOBASIS   BASIS     P2S    ABASIS      S 
                                         1400     1410     1200     1210     1080     1600     1650     1300     1700   
                                           T        V       H0       H01     AOSYM     SMH    MOLCAS    ERIS     OPER   

 PROGRAMS   *        TOTAL       INT
 CPU TIMES  *         1.06      0.91
 REAL TIME  *         2.90 SEC
 DISK USED  *        74.32 MB
 **********************************************************************************************************************************


 PROGRAM * RHF-SCF (CLOSED SHELL)       Authors: W. Meyer, H.-J. Werner


 NUMBER OF ELECTRONS:       8+    8-
 CONVERGENCE THRESHOLDS:    1.00E-10 (Density)    1.00E-13 (Energy)
 MAX. NUMBER OF ITERATIONS:      500
 INTERPOLATION TYPE:            DIIS
 INTERPOLATION STEPS:              2 (START)      1 (STEP)
 LEVEL SHIFTS:                  0.00 (CLOSED)  0.00 (OPEN) 



 Orbital guess generated from atomic densities. Full valence occupancy:    9   2

 Molecular orbital dump at record        2100.2

 Initial occupancy:   7   1

 ITERATION    DDIFF          GRAD             ENERGY        2-EL.EN.            DIPOLE MOMENTS         DIIS   ORB.
    1      0.000D+00      0.000D+00      -137.78055270    157.976581   -0.69063   -0.09276    0.00000    0    start
    2      0.000D+00      0.100D-01      -137.80573370    159.180935   -0.65476   -0.10391    0.00000    1    diag
    3      0.136D-01      0.343D-02      -137.80835773    159.365038   -0.62643   -0.00241    0.00000    2    diag
    4      0.372D-02      0.108D-02      -137.80864575    159.183216   -0.62361   -0.00583    0.00000    3    diag
    5      0.107D-02      0.318D-03      -137.80869353    159.252409   -0.62309    0.00549    0.00000    4    diag
    6      0.399D-03      0.744D-04      -137.80869845    159.252652   -0.62240    0.00787    0.00000    5    diag
    7      0.140D-03      0.239D-04      -137.80869894    159.253221   -0.62247    0.00812    0.00000    6    diag
    8      0.523D-04      0.503D-05      -137.80869896    159.253050   -0.62246    0.00805    0.00000    7    diag
    9      0.109D-04      0.917D-06      -137.80869896    159.253070   -0.62248    0.00802    0.00000    8    diag
   10      0.210D-05      0.193D-06      -137.80869896    159.253067   -0.62248    0.00802    0.00000    9    orth
   11      0.533D-06      0.486D-07      -137.80869896    159.253066   -0.62248    0.00801    0.00000    9    diag
   12      0.137D-06      0.102D-07      -137.80869896    159.253066   -0.62248    0.00801    0.00000    9    diag
   13      0.225D-07      0.234D-08      -137.80869896    159.253066   -0.62248    0.00801    0.00000    9    diag
   14      0.506D-08      0.608D-09      -137.80869896    159.253066   -0.62248    0.00801    0.00000    9    diag
   15      0.139D-08      0.129D-09      -137.80869896    159.253066   -0.62248    0.00801    0.00000    9    diag
   16      0.173D-09      0.399D-10      -137.80869896    159.253066   -0.62248    0.00801    0.00000    9    diag
   17      0.673D-10      0.710D-11      -137.80869896    159.253066   -0.62248    0.00801    0.00000    0    orth

 Final occupancy:   7   1

 !RHF STATE  1.1 Energy              -137.808698956403
 Nuclear energy                        27.77254550
 One-electron energy                 -245.20777741
 Two-electron energy                   79.62653295
 Virial quotient                       -1.00047273
 !RHF STATE  1.1 Dipole moment         -0.62248286     0.00801458     0.00000000
 Dipole moment /Debye                  -1.58208999     0.02036970     0.00000000

 Orbital energies:

         1.1          2.1          3.1          4.1          5.1          6.1          7.1          8.1          9.1
    -26.372712   -11.366776    -1.710186    -0.938517    -0.781997    -0.676761    -0.397949     0.070391     0.082663

         1.2          2.2          3.2
     -0.732458     0.047619     0.128273


 HOMO      7.1    -0.397949 =     -10.8287eV
 LUMO      2.2     0.047619 =       1.2958eV
 LUMO-HOMO         0.445568 =      12.1245eV


 **********************************************************************************************************************************
 DATASETS  * FILE   NREC   LENGTH (MB)   RECORD NAMES
              1      19       42.18       500      610      700      900      950      970     1000      129      960     1100   
                                          VAR    BASINP    GEOM    SYMINP    ZMAT    AOBASIS   BASIS     P2S    ABASIS      S 
                                         1400     1410     1200     1210     1080     1600     1650     1300     1700   
                                           T        V       H0       H01     AOSYM     SMH    MOLCAS    ERIS     OPER   

              2       4        2.84       700     1000      520     2100   
                                         GEOM     BASIS   MCVARS     RHF  

 PROGRAMS   *        TOTAL    HF-SCF       INT
 CPU TIMES  *         1.30      0.24      0.91
 REAL TIME  *         3.28 SEC
 DISK USED  *        74.32 MB
 **********************************************************************************************************************************


 PROGRAM * CCSD (Closed-shell coupled cluster)     Authors: C. Hampel, H.-J. Werner, 1991, M. Deegan, P.J. Knowles, 1992

                                  CCSD-F12 implementation by  H.-J. Werner, 2007

                   Density fitting integral evaluation by F.R. Manby, 2003,2007, G. Knizia, 2010


 Basis set AUG-CC-PVDZ/JKFIT generated.  Number of basis functions:   204 
 Basis set CC-PVDZ-F12/OPTRI generated.  Number of basis functions:   154 
 Basis set AUG-CC-PVDZ/MP2FIT generated. Number of basis functions:   167 

 Convergence thresholds:  THRVAR = 1.00D-16  THRDEN = 1.00D-12

 CCSD(T)     terms to be evaluated (factor= 1.000)


 Number of core orbitals:           2 (   2   0 )
 Number of closed-shell orbitals:   6 (   5   1 )
 Number of external orbitals:      61 (  42  19 )

 Molecular orbitals read from record     2100.2  Type=RHF/CANONICAL (state 1.1)

 MP2-F12 correlation treatment (H.-J. Werner, 2006)
 ==================================================

 Using MP2-F12 with ansatz 3C(FIX)

 Using projected zeroth-order Hamiltonian (+Z)

 FOCKRIB=T FOCKRIC=T FOCKRIP=T CABSP=T CABSA=T CABSK=T CABSF=T GBC=F EBC=F DMAT=T NOFIK=T NOPAO=1 SOLVE=-1  USEPAO=0
 EXCH_A= T EXCH_B= F EXCH_C= F EXCH_P= F

 Geminal basis:    OPTFULL  GEM_TYPE=SLATER  BETA=1.0  NGEM=6

 Optimizing Gaussian exponents for each gem_beta

 Geminal optimization for beta= 1.0000
 Weight function:   m=0, omega= 1.4646

 Augmented Hessian optimization of geminal fit. Trust ratio= 0.40000
 Convergence reached after   2 iterations. Final gradient= 8.66D-16, Step= 4.23D-06, Delta= 1.28D-09

 Alpha:                 0.19532     0.81920     2.85917     9.50073    35.69989   197.79328
 Coeff:                 0.27070     0.30552     0.18297     0.10986     0.06810     0.04224


 Symmetry turned off. Reference energy:       -137.808698956403

 All pairs explicitly correlated. Number of r12-pairs:           21

 Excluding core orbitals from MO domains

 AO(A)-basis ORBITAL           loaded. Number of functions:      69
 RI(R)-basis CC-PVDZ-F12/OPTRI loaded. Number of functions:     154
 DF-basis AUG-CC-PVDZ/JKFIT    loaded. Number of functions:     204

 Screening thresholds:   THRAO=  1.00D-10  THRMO=  1.00D-10  THRPROD=  1.00D-10
                         THRSW=  1.00D-07  THROV=  1.00D-12  THRAOF12= 1.00D-08

 CPU time for Fock operators                      0.94 sec

 Construction of ABS:
 Smallest eigenvalue of S          3.66E-03  (threshold= 1.00E-08)
 Ratio eigmin/eigmax               7.70E-04  (threshold= 1.00E-09)
 Smallest eigenvalue of S kept     3.66E-03  (threshold= 3.66E-03, 0 functions deleted, 154 kept)

 Construction of CABS:
 Smallest eigenvalue of S          9.77E-06  (threshold= 1.00E-08)
 Ratio eigmin/eigmax               9.77E-06  (threshold= 1.00E-09)
 Smallest eigenvalue of S kept     9.77E-06  (threshold= 9.77E-06, 0 functions deleted, 154 kept)

 CPU time for CABS singles                        0.01 sec

 CABS-singles contribution of  -0.00658480 patched into reference energy.
 New reference energy        -137.81528375

 AO(A)-basis ORBITAL           loaded. Number of functions:      69
 RI(R)-basis CC-PVDZ-F12/OPTRI loaded. Number of functions:     154
 DF-basis AUG-CC-PVDZ/MP2FIT   loaded. Number of functions:     167

 Screening thresholds:   THRAO=  1.00D-10  THRMO=  1.00D-10  THRPROD=  1.00D-10
                         THRSW=  1.00D-07  THROV=  1.00D-12  THRAOF12= 1.00D-08

 CPU time for 3-index integral evaluation         0.41 sec
 CPU time for first  half transformation          0.01 sec (15196.5 MFLOP/sec)
 CPU time for assembly                            0.04 sec (19371.9 MFLOP/sec)
 CPU time for tranop_f12                          0.05 sec (20899.9 MFLOP/sec)
 CPU time for f12 integrals (total)               1.26 sec, Elapsed time:      1.33 sec
 CPU time for f12 matrices (total)                0.01 sec, Elapsed time:      0.03 sec

 Diagonal F12 approximation with fixed coefficients:  TSING= 0.500,  TTRIP= 0.250 (scaled by -1/beta)

 DF-MP2-F12 energy corrections:
 ==============================
 Approx.                                    Singlet             Triplet             Total
 DF-MP2-F12/3*C(DX,FIX)                -0.078280704819     -0.016344408882     -0.094625113701
 DF-MP2-F12/3*C(FIX)                   -0.068981110672     -0.015357456452     -0.084338567123
 DF-MP2-F12/3C(FIX)                    -0.069673803292     -0.016158890090     -0.085832693382

 DF-MP2-F12 correlation energies:
 ================================
 Approx.                                    Singlet             Triplet             Ecorr            Total Energy
 DF-MP2                                -0.222869055302     -0.131425812160     -0.354294867463   -138.169578620023
 DF-MP2-F12/3*C(DX,FIX)                -0.301149760121     -0.147770221042     -0.448919981163   -138.264203733724
 DF-MP2-F12/3*C(FIX)                   -0.291850165974     -0.146783268612     -0.438633434586   -138.253917187147
 DF-MP2-F12/3C(FIX)                    -0.292542858594     -0.147584702251     -0.440127560845   -138.255411313406

 SCS-DF-MP2 energies (F_SING= 1.20000  F_TRIP= 0.62222  F_PARALLEL= 0.33333):
 ============================================================================
 SCS-DF-MP2                            -0.349218927263   -138.164502679823
 SCS-DF-MP2-F12/3*C(DX,FIX)            -0.453325627461   -138.268609380021
 SCS-DF-MP2-F12/3*C(FIX)               -0.441552010750   -138.256835763311
 SCS-DF-MP2-F12/3C(FIX)                -0.442881911714   -138.258165664274

 Symmetry restored.
 Symmetry transformation completed.

 Number of N-1 electron functions:               6
 Number of N-2 electron functions:              21
 Number of singly external CSFs:               229
 Number of doubly external CSFs:             35788
 Total number of CSFs:                       36018

 Length of J-op  integral file:              15.24 MB
 Length of K-op  integral file:              18.55 MB
 Length of 3-ext integral record:             0.00 MB

 Memory could be reduced to 1.16 Mwords without degradation in triples

 Integral transformation finished. Total CPU:   0.03 sec, npass=  1  Memory used:   0.52 MW

 Reference energy:                   -137.81528375

 Adding F12 terms to K(Cij), methodcc=6,  factor= 1.0

 ITER.      SQ.NORM     CORR.ENERGY   TOTAL ENERGY   ENERGY CHANGE        DEN1      VAR(S)    VAR(P)  DIIS     TIME  TIME/IT
   1      1.09173977    -0.36093686  -138.17622062    -0.00654748     0.00477120  0.25D-02  0.21D-02  1  1     2.35     0.05
   2      1.10101620    -0.36168504  -138.17696879    -0.00074817    -0.00893723  0.76D-04  0.49D-03  2  2     2.40     0.06
   3      1.10720258    -0.36245020  -138.17773395    -0.00076516    -0.00246427  0.81D-04  0.78D-04  3  3     2.45     0.06
   4      1.11088744    -0.36263051  -138.17791426    -0.00018031    -0.00127136  0.63D-05  0.20D-04  4  4     2.49     0.06
   5      1.11280872    -0.36267597  -138.17795972    -0.00004546    -0.00033158  0.71D-06  0.38D-05  5  5     2.55     0.06
   6      1.11352325    -0.36267229  -138.17795605     0.00000368    -0.00004993  0.12D-06  0.61D-06  6  6     2.60     0.06
   7      1.11367335    -0.36267683  -138.17796059    -0.00000454    -0.00001366  0.67D-07  0.80D-07  6  2     2.65     0.06
   8      1.11368004    -0.36267829  -138.17796204    -0.00000145     0.00000560  0.88D-08  0.13D-07  6  1     2.70     0.06
   9      1.11368667    -0.36267881  -138.17796256    -0.00000052    -0.00000172  0.29D-08  0.15D-08  6  3     2.75     0.06
  10      1.11368307    -0.36267929  -138.17796305    -0.00000048     0.00000197  0.29D-09  0.25D-09  6  4     2.80     0.06
  11      1.11368152    -0.36267935  -138.17796310    -0.00000005     0.00000043  0.81D-10  0.26D-10  6  5     2.85     0.06
  12      1.11368068    -0.36267941  -138.17796317    -0.00000007     0.00000035  0.98D-11  0.59D-11  6  6     2.90     0.06
  13      1.11368026    -0.36267942  -138.17796317    -0.00000001     0.00000006  0.23D-11  0.13D-11  6  2     2.95     0.06
  14      1.11367997    -0.36267943  -138.17796318    -0.00000001     0.00000005  0.24D-12  0.45D-12  6  1     2.99     0.06
  15      1.11367980    -0.36267943  -138.17796318    -0.00000000     0.00000001  0.24D-13  0.14D-12  6  3     3.03     0.06
  16      1.11367971    -0.36267943  -138.17796318    -0.00000000     0.00000001  0.53D-14  0.43D-13  6  4     3.09     0.06
  17      1.11367965    -0.36267943  -138.17796319    -0.00000000     0.00000001  0.46D-14  0.71D-14  6  5     3.14     0.06
  18      1.11367963    -0.36267943  -138.17796318     0.00000000     0.00000000  0.78D-15  0.96D-15  6  6     3.19     0.06
  19      1.11367963    -0.36267943  -138.17796318    -0.00000000     0.00000000  0.12D-15  0.13D-15  6  1     3.24     0.06
  20      1.11367963    -0.36267943  -138.17796318     0.00000000    -0.00000000  0.59D-17  0.82D-17  6  5     3.28     0.06
  21      1.11367963    -0.36267943  -138.17796318    -0.00000000     0.00000000  0.97D-18  0.66D-18  6  2     3.33     0.06
  22      1.11367963    -0.36267943  -138.17796318    -0.00000000     0.00000000  0.18D-18  0.86D-19  6  3     3.38     0.06
  23      1.11367963    -0.36267943  -138.17796318    -0.00000000     0.00000000  0.49D-19  0.13D-19  6  4     3.43     0.06
  24      1.11367963    -0.36267943  -138.17796318    -0.00000000     0.00000000  0.11D-19  0.36D-20  6  6     3.48     0.06
  25      1.11367963    -0.36267943  -138.17796318     0.00000000    -0.00000000  0.12D-20  0.71D-21  6  1     3.53     0.06
  26      1.11367963    -0.36267943  -138.17796318     0.00000000    -0.00000000  0.99D-22  0.18D-21  6  5     3.58     0.06

 Norm of t1 vector:      0.07644062      S-energy:     0.00000000      T1 diagnostic:  0.01560338
                                                                       D1 diagnostic:  0.04528524

 Adding energy correction from Wij-K(Fij), methodcc=6  factor= 1.0

  CCSD correlation energy              -0.362679432187
  MP2-F12 correction (uncoupled)       -0.080959455727
  C*T doubles correction               -0.002731921091
  f12b correction                       0.010124512733


 Total CPU time for triples:      0.27 sec


 RESULTS
 =======

  Reference energy                   -137.808698956403
  F12 singles correction               -0.006584796157

 F12 singles corrections added to reference energy

  New reference energy               -137.815283752561

  F12a singlet correction              -0.068262986758
  F12a triplet correction              -0.015428390060
  F12a total correction                -0.083691376819

 F12a corrections for ansatz F12/3C(FIX) added to CCSD energy

  CCSD-F12a singlet pair energy        -0.312449836190
  CCSD-F12a triplet pair energy        -0.133920972816
  CCSD-F12a correlation energy         -0.446370809005

  Triples (T) contribution             -0.012195424183
  Total correlation energy             -0.458566233188

  CCSD-F12a total energy             -138.261654561566
  CCSD[T]-F12a energy                -138.274852780998
  CCSD-T-F12a energy                 -138.273509250868
 !CCSD(T)-F12a total energy          -138.273849985749

 F12b corrections for ansatz F12/3C(FIX) added to CCSD(T)-F12a energy

  CCSD-F12b singlet pair energy        -0.303299169224
  CCSD-F12b triplet pair energy        -0.132947127048
  CCSD-F12b correlation energy         -0.436246296273

  Triples (T) contribution             -0.012195424183
  Total correlation energy             -0.448441720456

  CCSD-F12b total energy             -138.251530048833
  CCSD[T]-F12b energy                -138.264728268266
  CCSD-T-F12b energy                 -138.263384738136
 !CCSD(T)-F12b total energy          -138.263725473016

 Timing summary (sec):

 STEP                 CPU(USER)    SYS     CPU(TOT)    WALL
 Transformation          0.04      0.01      0.05      0.05
 CCSD iterations         1.30      0.21      1.51      1.58
 Triples                 0.27      0.01      0.28      0.28
 MP2-F12                 2.24      0.08      2.32      3.33
 F12b energy             0.03      0.00      0.03      0.03

 Program statistics:

 Available memory in ccsd:              1999999744
 Min. memory needed in ccsd:                136839
 Max. memory used in ccsd:                  163083
 Max. memory used in cckext:                208330 (27 integral passes)



 **********************************************************************************************************************************
 DATASETS  * FILE   NREC   LENGTH (MB)   RECORD NAMES
              1      20       45.77       500      610      700      900      950      970     1000      129      960     1100   
                                          VAR    BASINP    GEOM    SYMINP    ZMAT    AOBASIS   BASIS     P2S    ABASIS      S 
                                         1400     1410     1200     1210     1080     1600     1650     1300     1700     1380   
                                           T        V       H0       H01     AOSYM     SMH    MOLCAS    ERIS     OPER     JKOP   

              2       6        2.90       700     1000      520     2100     7360     7350   
                                         GEOM     BASIS   MCVARS     RHF    F12ABS    EF12   

 PROGRAMS   *        TOTAL   CCSD(T)    HF-SCF       INT
 CPU TIMES  *         5.22      3.92      0.24      0.91
 REAL TIME  *         8.60 SEC
 DISK USED  *        97.74 MB
 **********************************************************************************************************************************
 SETTING EE(1)          =      -138.26372547  AU                              


 Computing numerical gradient using default procedure for command CCSD(T)-F12

 *** Long output written to logfile /home/mdavis/f12eom_optimizer/tests/slurm/molpro_step.log ***


 Running default procedure: HF-SCF000  CCSD(T)-F12


 Generated   3 symmetrical displacements

 Numerical gradient for CCSD(T)-F12

 Total Energy          -138.26372547  Dipole moments:    0.000000    0.000000    0.000000

 Atom          dE/dx               dE/dy               dE/dz                  d2E/dx2             d2E/dy2             d2E/dz2
   1        -0.005523929         0.009184342         0.000000000            0.000000000         0.000000000         0.000000000
   2        -0.002592220        -0.040218564        -0.000000000            0.000000000         0.000000000         0.000000000
   3         0.008116149         0.031034222         0.000000000            0.000000000         0.000000000         0.000000000

 Recomputing wavefunction at initial geometry


 **********************************************************************************************************************************
 DATASETS  * FILE   NREC   LENGTH (MB)   RECORD NAMES
              1      21       45.99       500      610      700      900      701      950      970     1000      129      960   
                                          VAR    BASINP    GEOM    SYMINP    GEOM     ZMAT    AOBASIS   BASIS     P2S    ABASIS    
                                         1100     1400     1410     1200     1210     1080     1600     1650     1300     1700   
                                           S        T        V       H0       H01     AOSYM     SMH    MOLCAS    ERIS     OPER   
                                         1380   
                                         JKOP   

              2       8        3.12       700     1000      520     2100     7360     7350      701     5600   
                                         GEOM     BASIS   MCVARS     RHF    F12ABS    EF12     GEOM     GINFO   

 PROGRAMS   *        TOTAL    FORCES    HF-SCF       INT   CCSD(T)    HF-SCF       INT
 CPU TIMES  *        40.94      3.80      0.05     31.86      3.92      0.24      0.91
 REAL TIME  *        51.80 SEC
 DISK USED  *       100.73 MB
 **********************************************************************************************************************************
 EE(1)            =     -138.263725473017 AU
 GRADX(1:3)       = [     -0.005523929421   -0.002592219980    0.008116149402] AU
 GRADY(1:3)       = [      0.009184341519   -0.040218563524    0.031034222004] AU
 GRADZ(1:3)       = [      0.000000000000   -0.000000000000    0.000000000000] AU

 CCSD(T)-F12/cc-pVDZ-F12 energy=   -138.263725473017

     CCSD(T)-F12          HF-SCF     CCSD(T)-F12          HF-SCF
   -138.26372547   -137.80869896   -138.26372547   -137.80869896
 **********************************************************************************************************************************
 Molpro calculation terminated
