
 Primary working directories    : /scratch/mdavis/molpro_step_2022-08-17_16_45_51/molpro.hQ1DACH3tU
 Secondary working directories  : /scratch/mdavis/molpro_step_2022-08-17_16_45_51/molpro.hQ1DACH3tU
 Wavefunction directory         : /home/mdavis/f12eom_optimizer/tests/slurm/./
 Main file repository           : /scratch/mdavis/molpro_step_2022-08-17_16_45_51/molpro.hQ1DACH3tU/

 id        : olemiss

 Nodes     nprocs
 node17       1

 Using customized tuning parameters: mindgm=1; mindgv=20; mindgc=4; mindgr=1; noblas=0; minvec=7
 default implementation of scratch files=df  


 Variables initialized (945), CPU time= 0.00 sec
 ***,part of geometry opt run
 memory, 2000.0, m;
 gthresh,energy=1.d-12,zero=1.d-22,oneint=1.d-22,twoint=1.d-22;
 gthresh,optgrad=1.d-8,optstep=1.d-8;
 nocompress;
 bohr;
 geometry={
      3
 Fragment 1
     H  -1.1137017242   1.3322452577   0.0000000000
     C   0.1267125736   0.8909096080   0.0000000000
     F   0.1083418852  -0.9028750157   0.0000000000
      }
 
 set,charge=0
 set,spin=0
 basis=vdz-f12
 hf,maxit=500;wf,charge=0,spin=0;accu,20;
 ccsd(t)-f12,maxit=250;wf,charge=0,spin=0;orbital,IGNORE_ERROR;
 ee(1)=energy(2)
 forces,varsav
 SHOW[f18.12],ee(1)
 SHOW[f18.12],GRADX
 SHOW[f18.12],GRADY
 SHOW[f18.12],GRADZ
 Commands  initialized (802), CPU time= 0.01 sec, 659 directives.
 Default parameters read. Elapsed time= 0.10 sec

 Checking input...
 Passed
1


                                         ***  PROGRAM SYSTEM MOLPRO  ***
                                       Copyright, TTI GmbH Stuttgart, 2015
                                    Version 2020.1 linked Oct  6 2020 12:04:11


 **********************************************************************************************************************************
 LABEL *   part of geometry opt run                                                      
  64 bit serial version                                                                  DATE: 17-Aug-22          TIME: 16:45:52  
 **********************************************************************************************************************************

 SHA1:             8c27446f6450a7499e38f603e13c65f775101d37
 **********************************************************************************************************************************

 Memory per process:      2000 MW
 Total memory per node:   2000 MW

 GA preallocation disabled
 GA check disabled

 Variable memory set to 2000.0 MW


 THRESHOLDS:

 ZERO    =  1.00D-22  ONEINT  =  1.00D-22  TWOINT  =  1.00D-22  PREFAC  =  1.00D-14  XXXXXX  =  1.00D-09  EORDER  =  1.00D-04
 ENERGY  =  1.00D-12  ETEST   =  0.00D+00  EDENS   =  0.00D+00  THRDEDEF=  1.00D-06  GRADIENT=  1.00D-05  STEP    =  1.00D-03
 ORBITAL =  1.00D-05  CIVEC   =  1.00D-05  COEFF   =  1.00D-04  PRINTCI =  5.00D-02  PUNCHCI =  9.90D+01  OPTGRAD =  3.00D-04
 OPTENERG=  1.00D-06  OPTSTEP =  3.00D-04  THRGRAD =  1.00D-10  COMPRESS=  1.00D-11  VARMIN  =  1.00D-07  VARMAX  =  1.00D-03
 THRDOUB =  0.00D+00  THRDIV  =  1.00D-05  THRRED  =  1.00D-07  THRPSP  =  1.00D+00  THRDC   =  1.00D-10  THRCS   =  1.00D-10
 THRNRM  =  1.00D-08  THREQ   =  0.00D+00  THRDE   =  1.00D+00  THRREF  =  1.00D-05  SPARFAC =  1.00D+00  THRDLP  =  1.00D-07
 THRDIA  =  1.00D-10  THRDLS  =  1.00D-07  THRGPS  =  0.00D+00  THRKEX  =  0.00D+00  THRDIS  =  2.00D-01  THRVAR  =  1.00D-10
 THRLOC  =  1.00D-06  THRGAP  =  1.00D-06  THRLOCT = -1.00D+00  THRGAPT = -1.00D+00  THRORB  =  1.00D-06  THRMLTP =  0.00D+00
 THRCPQCI=  1.00D-10  KEXTA   =  0.00D+00  THRCOARS=  0.00D+00  SYMTOL  =  1.00D-06  GRADTOL =  1.00D-06  THROVL  =  1.00D-08
 THRORTH =  1.00D-08  GRID    =  1.00D-06  GRIDMAX =  1.00D-03  DTMAX   =  0.00D+00  THROCCDE=  1.00D-01  THROCCDE=  1.00D-01
 THRPRINT=  2.50D-01


 THRESHOLDS:

 ZERO    =  1.00D-22  ONEINT  =  1.00D-22  TWOINT  =  1.00D-22  PREFAC  =  1.00D-14  XXXXXX  =  1.00D-09  EORDER  =  1.00D-04
 ENERGY  =  1.00D-12  ETEST   =  0.00D+00  EDENS   =  0.00D+00  THRDEDEF=  1.00D-06  GRADIENT=  1.00D-05  STEP    =  1.00D-03
 ORBITAL =  1.00D-05  CIVEC   =  1.00D-05  COEFF   =  1.00D-04  PRINTCI =  5.00D-02  PUNCHCI =  9.90D+01  OPTGRAD =  1.00D-08
 OPTENERG=  1.00D-06  OPTSTEP =  1.00D-08  THRGRAD =  1.00D-10  COMPRESS=  1.00D-11  VARMIN  =  1.00D-07  VARMAX  =  1.00D-03
 THRDOUB =  0.00D+00  THRDIV  =  1.00D-05  THRRED  =  1.00D-07  THRPSP  =  1.00D+00  THRDC   =  1.00D-10  THRCS   =  1.00D-10
 THRNRM  =  1.00D-08  THREQ   =  0.00D+00  THRDE   =  1.00D+00  THRREF  =  1.00D-05  SPARFAC =  1.00D+00  THRDLP  =  1.00D-07
 THRDIA  =  1.00D-10  THRDLS  =  1.00D-07  THRGPS  =  0.00D+00  THRKEX  =  0.00D+00  THRDIS  =  2.00D-01  THRVAR  =  1.00D-10
 THRLOC  =  1.00D-06  THRGAP  =  1.00D-06  THRLOCT = -1.00D+00  THRGAPT = -1.00D+00  THRORB  =  1.00D-06  THRMLTP =  0.00D+00
 THRCPQCI=  1.00D-10  KEXTA   =  0.00D+00  THRCOARS=  0.00D+00  SYMTOL  =  1.00D-06  GRADTOL =  1.00D-06  THROVL  =  1.00D-08
 THRORTH =  1.00D-08  GRID    =  1.00D-06  GRIDMAX =  1.00D-03  DTMAX   =  0.00D+00  THROCCDE=  1.00D-01  THROCCDE=  1.00D-01
 THRPRINT=  2.50D-01


 Input parameters for SORTINT:

 COMPRESS =    0.000000
 C_FINAL  =    1.000000
 DEBUG    =   -1.000000
 C_SORT1  =    0.000000
 C_SEWARD =    0.000000
 THRESH   =    0.000000
 IO       =  molpro                                                                                                                          
 SPRI     =    0.000000
 ZUNIT=BOHR


 Geometry recognized as XYZ

 SETTING CHARGE         =     0.00000000D+00                                  
 SETTING SPIN           =     0.00000000D+00                                  
 SETTING BASIS          =    VDZ-F12


 Recomputing integrals since basis changed


 Using spherical harmonics

 Library entry H      S cc-pVDZ-F12          selected for orbital group  1
 Library entry H      P cc-pVDZ-F12          selected for orbital group  1
 Library entry C      S cc-pVDZ-F12          selected for orbital group  2
 Library entry C      P cc-pVDZ-F12          selected for orbital group  2
 Library entry C      D cc-pVDZ-F12          selected for orbital group  2
 Library entry F      S cc-pVDZ-F12          selected for orbital group  3
 Library entry F      P cc-pVDZ-F12          selected for orbital group  3
 Library entry F      D cc-pVDZ-F12          selected for orbital group  3


 PROGRAM * SEWARD (Integral evaluation for generally contracted gaussian basis sets)     Author: Roland Lindh, 1990

 Geometry written to block  1 of record 700


 Point group  Cs  



 ATOMIC COORDINATES

 NR  ATOM    CHARGE       X              Y              Z

   1  H       1.00   -1.113701724    1.332245258    0.000000000
   2  C       6.00    0.126712574    0.890909608    0.000000000
   3  F       9.00    0.108341885   -0.902875016    0.000000000

 Bond lengths in Bohr (Angstrom)

 1-2  1.316588313  2-3  1.793878691
     ( 0.696708531)     ( 0.949279722)

 Bond angles

  1-2-3  108.99864176

 NUCLEAR CHARGE:                   16
 NUMBER OF PRIMITIVE AOS:          93
 NUMBER OF SYMMETRY AOS:           89
 NUMBER OF CONTRACTIONS:           69   (   49A'  +   20A"  )
 NUMBER OF INNER CORE ORBITALS:     0   (    0A'  +    0A"  )
 NUMBER OF OUTER CORE ORBITALS:     2   (    2A'  +    0A"  )
 NUMBER OF VALENCE ORBITALS:        9   (    7A'  +    2A"  )


 NUCLEAR REPULSION ENERGY   38.19264269

 Eigenvalues of metric

         1 0.617E-03 0.862E-03 0.140E-02 0.208E-02 0.301E-02 0.322E-02 0.462E-02 0.467E-02
         2 0.325E-02 0.466E-02 0.322E-01 0.406E-01 0.821E-01 0.110E+00 0.204E+00 0.286E+00


 Contracted 2-electron integrals neglected if value below      1.0D-22

        1426049. INTEGRALS WRITTEN OUT IN     349 BLOCKS ON RECORD 1290 OF FILE 1


 NUMBER OF SORTED TWO-ELECTRON INTEGRALS:    1544830.     BUFFER LENGTH:  32768
 NUMBER OF SEGMENTS:   1  SEGMENT LENGTH:    1544830      RECORD LENGTH: 524288

 Memory used in sort:       2.10 MW

 SORT1 READ     1426049. AND WROTE     1455925. INTEGRALS IN      5 RECORDS. CPU TIME:     0.02 SEC, REAL TIME:     0.04 SEC
 SORT2 READ     1455925. AND WROTE     1544830. INTEGRALS IN      1 RECORDS. CPU TIME:     0.05 SEC, REAL TIME:     0.06 SEC

 FILE SIZES:   FILE 1:    53.0 MBYTE,  FILE 4:    21.0 MBYTE,   TOTAL:     74.0 MBYTE

 OPERATOR DM      FOR CENTER  0  COORDINATES:    0.000000    0.000000    0.000000


 **********************************************************************************************************************************
 DATASETS  * FILE   NREC   LENGTH (MB)   RECORD NAMES
              1      19       42.18       500      610      700      900      950      970     1000      129      960     1100   
                                          VAR    BASINP    GEOM    SYMINP    ZMAT    AOBASIS   BASIS     P2S    ABASIS      S 
                                         1400     1410     1200     1210     1080     1600     1650     1300     1700   
                                           T        V       H0       H01     AOSYM     SMH    MOLCAS    ERIS     OPER   

 PROGRAMS   *        TOTAL       INT
 CPU TIMES  *         1.11      0.97
 REAL TIME  *         2.64 SEC
 DISK USED  *        74.32 MB
 **********************************************************************************************************************************


 PROGRAM * RHF-SCF (CLOSED SHELL)       Authors: W. Meyer, H.-J. Werner


 NUMBER OF ELECTRONS:       8+    8-
 CONVERGENCE THRESHOLDS:    1.00E-10 (Density)    1.00E-13 (Energy)
 MAX. NUMBER OF ITERATIONS:      500
 INTERPOLATION TYPE:            DIIS
 INTERPOLATION STEPS:              2 (START)      1 (STEP)
 LEVEL SHIFTS:                  0.00 (CLOSED)  0.00 (OPEN) 



 Orbital guess generated from atomic densities. Full valence occupancy:    9   2

 Molecular orbital dump at record        2100.2

 Initial occupancy:   7   1

 ITERATION    DDIFF          GRAD             ENERGY        2-EL.EN.            DIPOLE MOMENTS         DIIS   ORB.
    1      0.000D+00      0.000D+00      -137.29326088    175.674123   -0.79492   -0.96296    0.00000    0    start
    2      0.000D+00      0.791D-02      -137.31259753    176.327551   -0.82684   -0.71866    0.00000    1    diag
    3      0.109D-01      0.261D-02      -137.31412119    175.915008   -0.85023   -0.73235    0.00000    2    diag
    4      0.402D-02      0.105D-02      -137.31442370    176.058569   -0.86119   -0.71168    0.00000    3    diag
    5      0.135D-02      0.230D-03      -137.31447715    176.028961   -0.86736   -0.70840    0.00000    4    diag
    6      0.812D-03      0.725D-04      -137.31448601    176.027267   -0.87014   -0.70698    0.00000    5    diag
    7      0.378D-03      0.178D-04      -137.31448650    176.023851   -0.87054   -0.70673    0.00000    6    diag
    8      0.801D-04      0.544D-05      -137.31448654    176.023920   -0.87065   -0.70666    0.00000    7    diag
    9      0.310D-04      0.121D-05      -137.31448654    176.023889   -0.87067   -0.70663    0.00000    8    diag
   10      0.622D-05      0.260D-06      -137.31448654    176.023884   -0.87067   -0.70663    0.00000    9    orth
   11      0.132D-05      0.458D-07      -137.31448654    176.023882   -0.87067   -0.70663    0.00000    9    diag
   12      0.124D-06      0.955D-08      -137.31448654    176.023882   -0.87067   -0.70663    0.00000    9    diag
   13      0.462D-07      0.230D-08      -137.31448654    176.023882   -0.87067   -0.70663    0.00000    9    diag
   14      0.166D-07      0.545D-09      -137.31448654    176.023882   -0.87067   -0.70663    0.00000    9    diag
   15      0.291D-08      0.840D-10      -137.31448654    176.023882   -0.87067   -0.70663    0.00000    9    diag
   16      0.518D-09      0.205D-10      -137.31448654    176.023882   -0.87067   -0.70663    0.00000    9    diag
   17      0.133D-09      0.770D-11      -137.31448654    176.023882   -0.87067   -0.70663    0.00000    9    diag
   18      0.378D-10      0.189D-11      -137.31448654    176.023882   -0.87067   -0.70663    0.00000    0    orth

 Final occupancy:   7   1

 !RHF STATE  1.1 Energy              -137.314486542413
 Nuclear energy                        38.19264269
 One-electron energy                 -263.51906998
 Two-electron energy                   88.01194075
 Virial quotient                       -0.97667260
 !RHF STATE  1.1 Dipole moment         -0.87067417    -0.70662905     0.00000000
 Dipole moment /Debye                  -2.21288806    -1.79595425     0.00000000

 Orbital energies:

         1.1          2.1          3.1          4.1          5.1          6.1          7.1          8.1          9.1
    -26.433319   -11.267624    -1.977253    -1.082404    -0.996399    -0.777446    -0.310738     0.057930     0.081189

         1.2          2.2          3.2
     -0.902413     0.071141     0.187995


 HOMO      7.1    -0.310738 =      -8.4556eV
 LUMO      8.1     0.057930 =       1.5763eV
 LUMO-HOMO         0.368668 =      10.0320eV


 **********************************************************************************************************************************
 DATASETS  * FILE   NREC   LENGTH (MB)   RECORD NAMES
              1      19       42.18       500      610      700      900      950      970     1000      129      960     1100   
                                          VAR    BASINP    GEOM    SYMINP    ZMAT    AOBASIS   BASIS     P2S    ABASIS      S 
                                         1400     1410     1200     1210     1080     1600     1650     1300     1700   
                                           T        V       H0       H01     AOSYM     SMH    MOLCAS    ERIS     OPER   

              2       4        2.84       700     1000      520     2100   
                                         GEOM     BASIS   MCVARS     RHF  

 PROGRAMS   *        TOTAL    HF-SCF       INT
 CPU TIMES  *         1.37      0.26      0.97
 REAL TIME  *         2.98 SEC
 DISK USED  *        74.32 MB
 **********************************************************************************************************************************


 PROGRAM * CCSD (Closed-shell coupled cluster)     Authors: C. Hampel, H.-J. Werner, 1991, M. Deegan, P.J. Knowles, 1992

                                  CCSD-F12 implementation by  H.-J. Werner, 2007

                   Density fitting integral evaluation by F.R. Manby, 2003,2007, G. Knizia, 2010


 Basis set AUG-CC-PVDZ/JKFIT generated.  Number of basis functions:   204 
 Basis set CC-PVDZ-F12/OPTRI generated.  Number of basis functions:   154 
 Basis set AUG-CC-PVDZ/MP2FIT generated. Number of basis functions:   167 

 Convergence thresholds:  THRVAR = 1.00D-16  THRDEN = 1.00D-12

 CCSD(T)     terms to be evaluated (factor= 1.000)


 Number of core orbitals:           2 (   2   0 )
 Number of closed-shell orbitals:   6 (   5   1 )
 Number of external orbitals:      61 (  42  19 )

 Molecular orbitals read from record     2100.2  Type=RHF/CANONICAL (state 1.1)

 MP2-F12 correlation treatment (H.-J. Werner, 2006)
 ==================================================

 Using MP2-F12 with ansatz 3C(FIX)

 Using projected zeroth-order Hamiltonian (+Z)

 FOCKRIB=T FOCKRIC=T FOCKRIP=T CABSP=T CABSA=T CABSK=T CABSF=T GBC=F EBC=F DMAT=T NOFIK=T NOPAO=1 SOLVE=-1  USEPAO=0
 EXCH_A= T EXCH_B= F EXCH_C= F EXCH_P= F

 Geminal basis:    OPTFULL  GEM_TYPE=SLATER  BETA=1.0  NGEM=6

 Optimizing Gaussian exponents for each gem_beta

 Geminal optimization for beta= 1.0000
 Weight function:   m=0, omega= 1.4646

 Augmented Hessian optimization of geminal fit. Trust ratio= 0.40000
 Convergence reached after   2 iterations. Final gradient= 8.66D-16, Step= 4.23D-06, Delta= 1.28D-09

 Alpha:                 0.19532     0.81920     2.85917     9.50073    35.69989   197.79328
 Coeff:                 0.27070     0.30552     0.18297     0.10986     0.06810     0.04224


 Symmetry turned off. Reference energy:       -137.314486542413

 All pairs explicitly correlated. Number of r12-pairs:           21

 Excluding core orbitals from MO domains

 AO(A)-basis ORBITAL           loaded. Number of functions:      69
 RI(R)-basis CC-PVDZ-F12/OPTRI loaded. Number of functions:     154
 DF-basis AUG-CC-PVDZ/JKFIT    loaded. Number of functions:     204

 Screening thresholds:   THRAO=  1.00D-10  THRMO=  1.00D-10  THRPROD=  1.00D-10
                         THRSW=  1.00D-07  THROV=  1.00D-12  THRAOF12= 1.00D-08

 CPU time for Fock operators                      0.89 sec

 Construction of ABS:
 Smallest eigenvalue of S          1.71E-04  (threshold= 1.00E-08)
 Ratio eigmin/eigmax               3.05E-05  (threshold= 1.00E-09)
 Smallest eigenvalue of S kept     1.71E-04  (threshold= 1.71E-04, 0 functions deleted, 154 kept)

 Construction of CABS:
 Smallest eigenvalue of S          3.85E-06  (threshold= 1.00E-08)
 Ratio eigmin/eigmax               3.85E-06  (threshold= 1.00E-09)
 Smallest eigenvalue of S kept     3.85E-06  (threshold= 3.85E-06, 0 functions deleted, 154 kept)

 CPU time for CABS singles                        0.01 sec

 CABS-singles contribution of  -0.01411100 patched into reference energy.
 New reference energy        -137.32859754

 AO(A)-basis ORBITAL           loaded. Number of functions:      69
 RI(R)-basis CC-PVDZ-F12/OPTRI loaded. Number of functions:     154
 DF-basis AUG-CC-PVDZ/MP2FIT   loaded. Number of functions:     167

 Screening thresholds:   THRAO=  1.00D-10  THRMO=  1.00D-10  THRPROD=  1.00D-10
                         THRSW=  1.00D-07  THROV=  1.00D-12  THRAOF12= 1.00D-08

 CPU time for 3-index integral evaluation         0.41 sec
 CPU time for first  half transformation          0.01 sec (15196.5 MFLOP/sec)
 CPU time for second half transformation          0.01 sec (  774.3 MFLOP/sec)
 CPU time for assembly                            0.05 sec (15497.6 MFLOP/sec)
 CPU time for tranop_f12                          0.04 sec (26124.8 MFLOP/sec)
 CPU time for f12 integrals (total)               1.21 sec, Elapsed time:      1.28 sec
 CPU time for f12 matrices (total)                0.01 sec, Elapsed time:      0.02 sec

 Diagonal F12 approximation with fixed coefficients:  TSING= 0.500,  TTRIP= 0.250 (scaled by -1/beta)

 DF-MP2-F12 energy corrections:
 ==============================
 Approx.                                    Singlet             Triplet             Total
 DF-MP2-F12/3*C(DX,FIX)                -0.083563887266     -0.018790785999     -0.102354673265
 DF-MP2-F12/3*C(FIX)                   -0.071055270519     -0.017033206809     -0.088088477329
 DF-MP2-F12/3C(FIX)                    -0.071633280990     -0.017995249735     -0.089628530725

 DF-MP2-F12 correlation energies:
 ================================
 Approx.                                    Singlet             Triplet             Ecorr            Total Energy
 DF-MP2                                -0.210057632046     -0.127852849520     -0.337910481566   -137.666508025289
 DF-MP2-F12/3*C(DX,FIX)                -0.293621519312     -0.146643635519     -0.440265154831   -137.768862698554
 DF-MP2-F12/3*C(FIX)                   -0.281112902566     -0.144886056329     -0.425998958895   -137.754596502617
 DF-MP2-F12/3C(FIX)                    -0.281690913036     -0.145848099255     -0.427539012291   -137.756136556013

 SCS-DF-MP2 energies (F_SING= 1.20000  F_TRIP= 0.62222  F_PARALLEL= 0.33333):
 ============================================================================
 SCS-DF-MP2                            -0.331622042601   -137.660219586324
 SCS-DF-MP2-F12/3*C(DX,FIX)            -0.443590751942   -137.772188295664
 SCS-DF-MP2-F12/3*C(FIX)               -0.427486807017   -137.756084350739
 SCS-DF-MP2-F12/3C(FIX)                -0.428779024069   -137.757376567791

 Symmetry restored.
 Symmetry transformation completed.

 Number of N-1 electron functions:               6
 Number of N-2 electron functions:              21
 Number of singly external CSFs:               229
 Number of doubly external CSFs:             35788
 Total number of CSFs:                       36018

 Length of J-op  integral file:              15.24 MB
 Length of K-op  integral file:              18.55 MB
 Length of 3-ext integral record:             0.00 MB

 Memory could be reduced to 1.16 Mwords without degradation in triples

 Integral transformation finished. Total CPU:   0.03 sec, npass=  1  Memory used:   0.52 MW

 Reference energy:                   -137.32859754

 Adding F12 terms to K(Cij), methodcc=6,  factor= 1.0

 ITER.      SQ.NORM     CORR.ENERGY   TOTAL ENERGY   ENERGY CHANGE        DEN1      VAR(S)    VAR(P)  DIIS     TIME  TIME/IT
   1      1.07351540    -0.34468532  -137.67328286    -0.00671811     0.00037112  0.90D-03  0.11D-02  1  1     2.24     0.05
   2      1.07874540    -0.34474903  -137.67334658    -0.00006371    -0.00557991  0.28D-04  0.21D-03  2  2     2.29     0.05
   3      1.08151773    -0.34507955  -137.67367709    -0.00033051    -0.00130877  0.12D-04  0.42D-04  3  3     2.35     0.05
   4      1.08331279    -0.34522384  -137.67382139    -0.00014430    -0.00064744  0.12D-05  0.99D-05  4  4     2.40     0.05
   5      1.08410235    -0.34523693  -137.67383448    -0.00001309    -0.00007838  0.21D-06  0.19D-05  5  5     2.44     0.05
   6      1.08447654    -0.34524017  -137.67383771    -0.00000324    -0.00002688  0.88D-07  0.18D-06  6  6     2.49     0.05
   7      1.08454426    -0.34524030  -137.67383785    -0.00000013    -0.00000578  0.79D-08  0.16D-07  6  1     2.53     0.05
   8      1.08455112    -0.34524168  -137.67383923    -0.00000138     0.00000119  0.91D-09  0.17D-08  6  2     2.57     0.06
   9      1.08455256    -0.34524179  -137.67383934    -0.00000011    -0.00000034  0.15D-09  0.19D-09  6  3     2.61     0.06
  10      1.08455243    -0.34524176  -137.67383930     0.00000003     0.00000039  0.34D-10  0.25D-10  6  4     2.66     0.06
  11      1.08455214    -0.34524174  -137.67383928     0.00000002     0.00000014  0.83D-11  0.34D-11  6  5     2.72     0.06
  12      1.08455191    -0.34524172  -137.67383927     0.00000001     0.00000010  0.16D-11  0.66D-12  6  6     2.77     0.06
  13      1.08455173    -0.34524172  -137.67383927     0.00000000     0.00000003  0.46D-12  0.12D-12  6  2     2.82     0.06
  14      1.08455163    -0.34524172  -137.67383926     0.00000000     0.00000002  0.54D-13  0.14D-13  6  1     2.87     0.06
  15      1.08455161    -0.34524172  -137.67383926     0.00000000     0.00000000  0.15D-13  0.38D-14  6  3     2.92     0.06
  16      1.08455160    -0.34524172  -137.67383926     0.00000000     0.00000000  0.23D-14  0.73D-15  6  4     2.96     0.06
  17      1.08455159    -0.34524172  -137.67383926     0.00000000     0.00000000  0.38D-15  0.14D-15  6  5     3.02     0.06
  18      1.08455160    -0.34524172  -137.67383926     0.00000000    -0.00000000  0.75D-16  0.23D-16  6  6     3.06     0.06
  19      1.08455160    -0.34524172  -137.67383926     0.00000000    -0.00000000  0.17D-16  0.58D-17  6  2     3.11     0.06
  20      1.08455160    -0.34524172  -137.67383926     0.00000000    -0.00000000  0.34D-17  0.14D-17  6  1     3.16     0.06
  21      1.08455160    -0.34524172  -137.67383926    -0.00000000    -0.00000000  0.70D-18  0.29D-18  6  3     3.21     0.06
  22      1.08455160    -0.34524172  -137.67383926    -0.00000000     0.00000000  0.12D-18  0.49D-19  6  4     3.26     0.06
  23      1.08455160    -0.34524172  -137.67383926    -0.00000000    -0.00000000  0.14D-19  0.11D-19  6  6     3.30     0.06
  24      1.08455160    -0.34524172  -137.67383926    -0.00000000    -0.00000000  0.32D-20  0.11D-20  6  5     3.35     0.06

 Norm of t1 vector:      0.04204313      S-energy:    -0.00000000      T1 diagnostic:  0.00858202
                                                                       D1 diagnostic:  0.02105937

 Doubles amplitudes (print threshold =  0.500E-01):

         I         J         SYM. A    SYM. B    A         B      T(IJ, AB)

         5         5         2         2         2         2     -0.06141177

 Adding energy correction from Wij-K(Fij), methodcc=6  factor= 1.0

  CCSD correlation energy              -0.345241718601
  MP2-F12 correction (uncoupled)       -0.084328633172
  C*T doubles correction               -0.003101894196
  f12b correction                       0.009468794058


 Total CPU time for triples:      0.27 sec


 RESULTS
 =======

  Reference energy                   -137.314486542413
  F12 singles correction               -0.014111001310

 F12 singles corrections added to reference energy

  New reference energy               -137.328597543722

  F12a singlet correction              -0.070315988790
  F12a triplet correction              -0.017114538578
  F12a total correction                -0.087430527368

 F12a corrections for ansatz F12/3C(FIX) added to CCSD energy

  CCSD-F12a singlet pair energy        -0.297090913686
  CCSD-F12a triplet pair energy        -0.135581332282
  CCSD-F12a correlation energy         -0.432672245969

  Triples (T) contribution             -0.008829523587
  Total correlation energy             -0.441501769556

  CCSD-F12a total energy             -137.761269789691
  CCSD[T]-F12a energy                -137.770388970089
  CCSD-T-F12a energy                 -137.770014683832
 !CCSD(T)-F12a total energy          -137.770099313278

 F12b corrections for ansatz F12/3C(FIX) added to CCSD(T)-F12a energy

  CCSD-F12b singlet pair energy        -0.288598567896
  CCSD-F12b triplet pair energy        -0.134604884015
  CCSD-F12b correlation energy         -0.423203451911

  Triples (T) contribution             -0.008829523587
  Total correlation energy             -0.432032975498

  CCSD-F12b total energy             -137.751800995633
  CCSD[T]-F12b energy                -137.760920176031
  CCSD-T-F12b energy                 -137.760545889774
 !CCSD(T)-F12b total energy          -137.760630519220

 Timing summary (sec):

 STEP                 CPU(USER)    SYS     CPU(TOT)    WALL
 Transformation          0.03      0.02      0.05      0.05
 CCSD iterations         1.17      0.17      1.34      1.37
 Triples                 0.27      0.00      0.27      0.26
 MP2-F12                 2.15      0.11      2.26      2.54
 F12b energy             0.02      0.01      0.03      0.04

 Program statistics:

 Available memory in ccsd:              1999999744
 Min. memory needed in ccsd:                136839
 Max. memory used in ccsd:                  163083
 Max. memory used in cckext:                208330 (25 integral passes)



 **********************************************************************************************************************************
 DATASETS  * FILE   NREC   LENGTH (MB)   RECORD NAMES
              1      20       45.77       500      610      700      900      950      970     1000      129      960     1100   
                                          VAR    BASINP    GEOM    SYMINP    ZMAT    AOBASIS   BASIS     P2S    ABASIS      S 
                                         1400     1410     1200     1210     1080     1600     1650     1300     1700     1380   
                                           T        V       H0       H01     AOSYM     SMH    MOLCAS    ERIS     OPER     JKOP   

              2       6        2.90       700     1000      520     2100     7360     7350   
                                         GEOM     BASIS   MCVARS     RHF    F12ABS    EF12   

 PROGRAMS   *        TOTAL   CCSD(T)    HF-SCF       INT
 CPU TIMES  *         5.05      3.67      0.26      0.97
 REAL TIME  *         7.28 SEC
 DISK USED  *        97.74 MB
 **********************************************************************************************************************************
 SETTING EE(1)          =      -137.76063052  AU                              


 Computing numerical gradient using default procedure for command CCSD(T)-F12

 *** Long output written to logfile /home/mdavis/f12eom_optimizer/tests/slurm/molpro_step.log ***


 Running default procedure: HF-SCF000  CCSD(T)-F12


 Generated   3 symmetrical displacements

 Numerical gradient for CCSD(T)-F12

 Total Energy          -137.76063052  Dipole moments:    0.000000    0.000000    0.000000

 Atom          dE/dx               dE/dy               dE/dz                  d2E/dx2             d2E/dy2             d2E/dz2
   1         0.880200259        -0.362885744         0.000000000            0.000000000         0.000000000         0.000000000
   2        -0.857932077        -0.819464660        -0.000000000            0.000000000         0.000000000         0.000000000
   3        -0.022268182         1.182350404         0.000000000            0.000000000         0.000000000         0.000000000

 Recomputing wavefunction at initial geometry


 **********************************************************************************************************************************
 DATASETS  * FILE   NREC   LENGTH (MB)   RECORD NAMES
              1      21       45.99       500      610      700      900      701      950      970     1000      129      960   
                                          VAR    BASINP    GEOM    SYMINP    GEOM     ZMAT    AOBASIS   BASIS     P2S    ABASIS    
                                         1100     1400     1410     1200     1210     1080     1600     1650     1300     1700   
                                           S        T        V       H0       H01     AOSYM     SMH    MOLCAS    ERIS     OPER   
                                         1380   
                                         JKOP   

              2       8        3.12       700     1000      520     2100     7360     7350      701     5600   
                                         GEOM     BASIS   MCVARS     RHF    F12ABS    EF12     GEOM     GINFO   

 PROGRAMS   *        TOTAL    FORCES    HF-SCF       INT   CCSD(T)    HF-SCF       INT
 CPU TIMES  *        39.90      3.68      0.04     31.12      3.67      0.26      0.97
 REAL TIME  *        49.89 SEC
 DISK USED  *       100.73 MB
 **********************************************************************************************************************************
 EE(1)            =     -137.760630519220 AU
 GRADX(1:3)       = [      0.880200258547   -0.857932076962   -0.022268181586] AU
 GRADY(1:3)       = [     -0.362885744184   -0.819464660065    1.182350404249] AU
 GRADZ(1:3)       = [      0.000000000000   -0.000000000000    0.000000000000] AU

 CCSD(T)-F12/cc-pVDZ-F12 energy=   -137.760630519220

     CCSD(T)-F12          HF-SCF     CCSD(T)-F12          HF-SCF
   -137.76063052   -137.31448654   -137.76063052   -137.31448654
 **********************************************************************************************************************************
 Molpro calculation terminated
