
 Primary working directories    : /scratch/mdavis/molpro_step_2022-08-17_18_11_07/molpro.CaGAM8tAvN
 Secondary working directories  : /scratch/mdavis/molpro_step_2022-08-17_18_11_07/molpro.CaGAM8tAvN
 Wavefunction directory         : /home/mdavis/f12eom_optimizer/tests/slurm/./
 Main file repository           : /scratch/mdavis/molpro_step_2022-08-17_18_11_07/molpro.CaGAM8tAvN/

 id        : olemiss

 Nodes     nprocs
 node17       1

 Using customized tuning parameters: mindgm=1; mindgv=20; mindgc=4; mindgr=1; noblas=0; minvec=7
 default implementation of scratch files=df  


 Variables initialized (945), CPU time= 0.01 sec
 ***,part of geometry opt run
 memory, 2000.0, m;
 gthresh,energy=1.d-12,zero=1.d-22,oneint=1.d-22,twoint=1.d-22;
 gthresh,optgrad=1.d-8,optstep=1.d-8;
 nocompress;
 bohr;
 geometry={
      3
 Fragment 1
     H  -1.5934559576   1.7229645046   0.0000000000
     C   0.4345079690   0.9922904264   0.0000000000
     F   0.2803007232  -1.3949750810   0.0000000000
      }
 
 set,charge=0
 set,spin=0
 basis=vdz-f12
 hf,maxit=500;wf,charge=0,spin=0;accu,20;
 ccsd(t)-f12,maxit=250;wf,charge=0,spin=0;orbital,IGNORE_ERROR;
 ee(1)=energy(2)
 forces,varsav
 SHOW[f18.12],ee(1)
 SHOW[f18.12],GRADX
 SHOW[f18.12],GRADY
 SHOW[f18.12],GRADZ
 Commands  initialized (802), CPU time= 0.01 sec, 659 directives.
 Default parameters read. Elapsed time= 0.10 sec

 Checking input...
 Passed
1


                                         ***  PROGRAM SYSTEM MOLPRO  ***
                                       Copyright, TTI GmbH Stuttgart, 2015
                                    Version 2020.1 linked Oct  6 2020 12:04:11


 **********************************************************************************************************************************
 LABEL *   part of geometry opt run                                                      
  64 bit serial version                                                                  DATE: 17-Aug-22          TIME: 18:11:07  
 **********************************************************************************************************************************

 SHA1:             8c27446f6450a7499e38f603e13c65f775101d37
 **********************************************************************************************************************************

 Memory per process:      2000 MW
 Total memory per node:   2000 MW

 GA preallocation disabled
 GA check disabled

 Variable memory set to 2000.0 MW


 THRESHOLDS:

 ZERO    =  1.00D-22  ONEINT  =  1.00D-22  TWOINT  =  1.00D-22  PREFAC  =  1.00D-14  XXXXXX  =  1.00D-09  EORDER  =  1.00D-04
 ENERGY  =  1.00D-12  ETEST   =  0.00D+00  EDENS   =  0.00D+00  THRDEDEF=  1.00D-06  GRADIENT=  1.00D-05  STEP    =  1.00D-03
 ORBITAL =  1.00D-05  CIVEC   =  1.00D-05  COEFF   =  1.00D-04  PRINTCI =  5.00D-02  PUNCHCI =  9.90D+01  OPTGRAD =  3.00D-04
 OPTENERG=  1.00D-06  OPTSTEP =  3.00D-04  THRGRAD =  1.00D-10  COMPRESS=  1.00D-11  VARMIN  =  1.00D-07  VARMAX  =  1.00D-03
 THRDOUB =  0.00D+00  THRDIV  =  1.00D-05  THRRED  =  1.00D-07  THRPSP  =  1.00D+00  THRDC   =  1.00D-10  THRCS   =  1.00D-10
 THRNRM  =  1.00D-08  THREQ   =  0.00D+00  THRDE   =  1.00D+00  THRREF  =  1.00D-05  SPARFAC =  1.00D+00  THRDLP  =  1.00D-07
 THRDIA  =  1.00D-10  THRDLS  =  1.00D-07  THRGPS  =  0.00D+00  THRKEX  =  0.00D+00  THRDIS  =  2.00D-01  THRVAR  =  1.00D-10
 THRLOC  =  1.00D-06  THRGAP  =  1.00D-06  THRLOCT = -1.00D+00  THRGAPT = -1.00D+00  THRORB  =  1.00D-06  THRMLTP =  0.00D+00
 THRCPQCI=  1.00D-10  KEXTA   =  0.00D+00  THRCOARS=  0.00D+00  SYMTOL  =  1.00D-06  GRADTOL =  1.00D-06  THROVL  =  1.00D-08
 THRORTH =  1.00D-08  GRID    =  1.00D-06  GRIDMAX =  1.00D-03  DTMAX   =  0.00D+00  THROCCDE=  1.00D-01  THROCCDE=  1.00D-01
 THRPRINT=  2.50D-01


 THRESHOLDS:

 ZERO    =  1.00D-22  ONEINT  =  1.00D-22  TWOINT  =  1.00D-22  PREFAC  =  1.00D-14  XXXXXX  =  1.00D-09  EORDER  =  1.00D-04
 ENERGY  =  1.00D-12  ETEST   =  0.00D+00  EDENS   =  0.00D+00  THRDEDEF=  1.00D-06  GRADIENT=  1.00D-05  STEP    =  1.00D-03
 ORBITAL =  1.00D-05  CIVEC   =  1.00D-05  COEFF   =  1.00D-04  PRINTCI =  5.00D-02  PUNCHCI =  9.90D+01  OPTGRAD =  1.00D-08
 OPTENERG=  1.00D-06  OPTSTEP =  1.00D-08  THRGRAD =  1.00D-10  COMPRESS=  1.00D-11  VARMIN  =  1.00D-07  VARMAX  =  1.00D-03
 THRDOUB =  0.00D+00  THRDIV  =  1.00D-05  THRRED  =  1.00D-07  THRPSP  =  1.00D+00  THRDC   =  1.00D-10  THRCS   =  1.00D-10
 THRNRM  =  1.00D-08  THREQ   =  0.00D+00  THRDE   =  1.00D+00  THRREF  =  1.00D-05  SPARFAC =  1.00D+00  THRDLP  =  1.00D-07
 THRDIA  =  1.00D-10  THRDLS  =  1.00D-07  THRGPS  =  0.00D+00  THRKEX  =  0.00D+00  THRDIS  =  2.00D-01  THRVAR  =  1.00D-10
 THRLOC  =  1.00D-06  THRGAP  =  1.00D-06  THRLOCT = -1.00D+00  THRGAPT = -1.00D+00  THRORB  =  1.00D-06  THRMLTP =  0.00D+00
 THRCPQCI=  1.00D-10  KEXTA   =  0.00D+00  THRCOARS=  0.00D+00  SYMTOL  =  1.00D-06  GRADTOL =  1.00D-06  THROVL  =  1.00D-08
 THRORTH =  1.00D-08  GRID    =  1.00D-06  GRIDMAX =  1.00D-03  DTMAX   =  0.00D+00  THROCCDE=  1.00D-01  THROCCDE=  1.00D-01
 THRPRINT=  2.50D-01


 Input parameters for SORTINT:

 COMPRESS =    0.000000
 C_FINAL  =    1.000000
 DEBUG    =   -1.000000
 C_SORT1  =    0.000000
 C_SEWARD =    0.000000
 THRESH   =    0.000000
 IO       =  molpro                                                                                                                          
 SPRI     =    0.000000
 ZUNIT=BOHR


 Geometry recognized as XYZ

 SETTING CHARGE         =     0.00000000D+00                                  
 SETTING SPIN           =     0.00000000D+00                                  
 SETTING BASIS          =    VDZ-F12


 Recomputing integrals since basis changed


 Using spherical harmonics

 Library entry H      S cc-pVDZ-F12          selected for orbital group  1
 Library entry H      P cc-pVDZ-F12          selected for orbital group  1
 Library entry C      S cc-pVDZ-F12          selected for orbital group  2
 Library entry C      P cc-pVDZ-F12          selected for orbital group  2
 Library entry C      D cc-pVDZ-F12          selected for orbital group  2
 Library entry F      S cc-pVDZ-F12          selected for orbital group  3
 Library entry F      P cc-pVDZ-F12          selected for orbital group  3
 Library entry F      D cc-pVDZ-F12          selected for orbital group  3


 PROGRAM * SEWARD (Integral evaluation for generally contracted gaussian basis sets)     Author: Roland Lindh, 1990

 Geometry written to block  1 of record 700


 Point group  Cs  



 ATOMIC COORDINATES

 NR  ATOM    CHARGE       X              Y              Z

   1  H       1.00   -1.593455958    1.722964505    0.000000000
   2  C       6.00    0.434507969    0.992290426    0.000000000
   3  F       9.00    0.280300723   -1.394975081    0.000000000

 Bond lengths in Bohr (Angstrom)

 1-2  2.155579341  2-3  2.392240890
     ( 1.140683464)     ( 1.265919362)

 Bond angles

  1-2-3  106.11812848

 NUCLEAR CHARGE:                   16
 NUMBER OF PRIMITIVE AOS:          93
 NUMBER OF SYMMETRY AOS:           89
 NUMBER OF CONTRACTIONS:           69   (   49A'  +   20A"  )
 NUMBER OF INNER CORE ORBITALS:     0   (    0A'  +    0A"  )
 NUMBER OF OUTER CORE ORBITALS:     2   (    2A'  +    0A"  )
 NUMBER OF VALENCE ORBITALS:        9   (    7A'  +    2A"  )


 NUCLEAR REPULSION ENERGY   27.83057551

 Eigenvalues of metric

         1 0.148E-02 0.298E-02 0.323E-02 0.330E-02 0.414E-02 0.468E-02 0.471E-02 0.912E-02
         2 0.330E-02 0.468E-02 0.777E-01 0.927E-01 0.137E+00 0.168E+00 0.245E+00 0.383E+00


 Contracted 2-electron integrals neglected if value below      1.0D-22

        1426049. INTEGRALS WRITTEN OUT IN     349 BLOCKS ON RECORD 1290 OF FILE 1


 NUMBER OF SORTED TWO-ELECTRON INTEGRALS:    1544830.     BUFFER LENGTH:  32768
 NUMBER OF SEGMENTS:   1  SEGMENT LENGTH:    1544830      RECORD LENGTH: 524288

 Memory used in sort:       2.10 MW

 SORT1 READ     1426049. AND WROTE     1455925. INTEGRALS IN      5 RECORDS. CPU TIME:     0.02 SEC, REAL TIME:     0.04 SEC
 SORT2 READ     1455925. AND WROTE     1544830. INTEGRALS IN      1 RECORDS. CPU TIME:     0.05 SEC, REAL TIME:     0.06 SEC

 FILE SIZES:   FILE 1:    53.0 MBYTE,  FILE 4:    21.0 MBYTE,   TOTAL:     74.0 MBYTE

 OPERATOR DM      FOR CENTER  0  COORDINATES:    0.000000    0.000000    0.000000


 **********************************************************************************************************************************
 DATASETS  * FILE   NREC   LENGTH (MB)   RECORD NAMES
              1      19       42.18       500      610      700      900      950      970     1000      129      960     1100   
                                          VAR    BASINP    GEOM    SYMINP    ZMAT    AOBASIS   BASIS     P2S    ABASIS      S 
                                         1400     1410     1200     1210     1080     1600     1650     1300     1700   
                                           T        V       H0       H01     AOSYM     SMH    MOLCAS    ERIS     OPER   

 PROGRAMS   *        TOTAL       INT
 CPU TIMES  *         1.03      0.90
 REAL TIME  *         2.66 SEC
 DISK USED  *        74.32 MB
 **********************************************************************************************************************************


 PROGRAM * RHF-SCF (CLOSED SHELL)       Authors: W. Meyer, H.-J. Werner


 NUMBER OF ELECTRONS:       8+    8-
 CONVERGENCE THRESHOLDS:    1.00E-10 (Density)    1.00E-13 (Energy)
 MAX. NUMBER OF ITERATIONS:      500
 INTERPOLATION TYPE:            DIIS
 INTERPOLATION STEPS:              2 (START)      1 (STEP)
 LEVEL SHIFTS:                  0.00 (CLOSED)  0.00 (OPEN) 



 Orbital guess generated from atomic densities. Full valence occupancy:    9   2

 Molecular orbital dump at record        2100.2

 Initial occupancy:   7   1

 ITERATION    DDIFF          GRAD             ENERGY        2-EL.EN.            DIPOLE MOMENTS         DIIS   ORB.
    1      0.000D+00      0.000D+00      -137.78057479    158.058906   -0.69020   -0.10422    0.00000    0    start
    2      0.000D+00      0.100D-01      -137.80565263    159.285133   -0.65398   -0.11072    0.00000    1    diag
    3      0.136D-01      0.338D-02      -137.80822380    159.454129   -0.62575   -0.01090    0.00000    2    diag
    4      0.368D-02      0.107D-02      -137.80850605    159.275936   -0.62300   -0.01408    0.00000    3    diag
    5      0.107D-02      0.320D-03      -137.80855312    159.345575   -0.62249   -0.00278    0.00000    4    diag
    6      0.396D-03      0.741D-04      -137.80855797    159.345717   -0.62180   -0.00040    0.00000    5    diag
    7      0.139D-03      0.238D-04      -137.80855845    159.346300   -0.62187   -0.00015    0.00000    6    diag
    8      0.518D-04      0.500D-05      -137.80855847    159.346128   -0.62186   -0.00021    0.00000    7    diag
    9      0.108D-04      0.907D-06      -137.80855847    159.346149   -0.62188   -0.00024    0.00000    8    diag
   10      0.208D-05      0.189D-06      -137.80855847    159.346146   -0.62188   -0.00025    0.00000    9    orth
   11      0.524D-06      0.477D-07      -137.80855847    159.346145   -0.62188   -0.00025    0.00000    9    diag
   12      0.135D-06      0.101D-07      -137.80855847    159.346145   -0.62188   -0.00025    0.00000    9    diag
   13      0.223D-07      0.229D-08      -137.80855847    159.346145   -0.62188   -0.00025    0.00000    9    diag
   14      0.496D-08      0.593D-09      -137.80855847    159.346145   -0.62188   -0.00025    0.00000    9    diag
   15      0.137D-08      0.126D-09      -137.80855847    159.346145   -0.62188   -0.00025    0.00000    9    diag
   16      0.171D-09      0.396D-10      -137.80855847    159.346145   -0.62188   -0.00025    0.00000    9    diag
   17      0.667D-10      0.708D-11      -137.80855847    159.346145   -0.62188   -0.00025    0.00000    9    diag
   18      0.174D-10      0.154D-11      -137.80855847    159.346145   -0.62188   -0.00025    0.00000    0    orth

 Final occupancy:   7   1

 !RHF STATE  1.1 Energy              -137.808558468595
 Nuclear energy                        27.83057551
 One-electron energy                 -245.31220647
 Two-electron energy                   79.67307249
 Virial quotient                       -1.00041928
 !RHF STATE  1.1 Dipole moment         -0.62188331    -0.00024806     0.00000000
 Dipole moment /Debye                  -1.58056617    -0.00063046     0.00000000

 Orbital energies:

         1.1          2.1          3.1          4.1          5.1          6.1          7.1          8.1          9.1
    -26.373591   -11.366233    -1.712420    -0.939368    -0.783400    -0.677048    -0.397094     0.070380     0.082685

         1.2          2.2          3.2
     -0.733876     0.047977     0.128603


 HOMO      7.1    -0.397094 =     -10.8055eV
 LUMO      2.2     0.047977 =       1.3055eV
 LUMO-HOMO         0.445071 =      12.1110eV


 **********************************************************************************************************************************
 DATASETS  * FILE   NREC   LENGTH (MB)   RECORD NAMES
              1      19       42.18       500      610      700      900      950      970     1000      129      960     1100   
                                          VAR    BASINP    GEOM    SYMINP    ZMAT    AOBASIS   BASIS     P2S    ABASIS      S 
                                         1400     1410     1200     1210     1080     1600     1650     1300     1700   
                                           T        V       H0       H01     AOSYM     SMH    MOLCAS    ERIS     OPER   

              2       4        2.84       700     1000      520     2100   
                                         GEOM     BASIS   MCVARS     RHF  

 PROGRAMS   *        TOTAL    HF-SCF       INT
 CPU TIMES  *         1.29      0.26      0.90
 REAL TIME  *         3.04 SEC
 DISK USED  *        74.32 MB
 **********************************************************************************************************************************


 PROGRAM * CCSD (Closed-shell coupled cluster)     Authors: C. Hampel, H.-J. Werner, 1991, M. Deegan, P.J. Knowles, 1992

                                  CCSD-F12 implementation by  H.-J. Werner, 2007

                   Density fitting integral evaluation by F.R. Manby, 2003,2007, G. Knizia, 2010


 Basis set AUG-CC-PVDZ/JKFIT generated.  Number of basis functions:   204 
 Basis set CC-PVDZ-F12/OPTRI generated.  Number of basis functions:   154 
 Basis set AUG-CC-PVDZ/MP2FIT generated. Number of basis functions:   167 

 Convergence thresholds:  THRVAR = 1.00D-16  THRDEN = 1.00D-12

 CCSD(T)     terms to be evaluated (factor= 1.000)


 Number of core orbitals:           2 (   2   0 )
 Number of closed-shell orbitals:   6 (   5   1 )
 Number of external orbitals:      61 (  42  19 )

 Molecular orbitals read from record     2100.2  Type=RHF/CANONICAL (state 1.1)

 MP2-F12 correlation treatment (H.-J. Werner, 2006)
 ==================================================

 Using MP2-F12 with ansatz 3C(FIX)

 Using projected zeroth-order Hamiltonian (+Z)

 FOCKRIB=T FOCKRIC=T FOCKRIP=T CABSP=T CABSA=T CABSK=T CABSF=T GBC=F EBC=F DMAT=T NOFIK=T NOPAO=1 SOLVE=-1  USEPAO=0
 EXCH_A= T EXCH_B= F EXCH_C= F EXCH_P= F

 Geminal basis:    OPTFULL  GEM_TYPE=SLATER  BETA=1.0  NGEM=6

 Optimizing Gaussian exponents for each gem_beta

 Geminal optimization for beta= 1.0000
 Weight function:   m=0, omega= 1.4646

 Augmented Hessian optimization of geminal fit. Trust ratio= 0.40000
 Convergence reached after   2 iterations. Final gradient= 8.66D-16, Step= 4.23D-06, Delta= 1.28D-09

 Alpha:                 0.19532     0.81920     2.85917     9.50073    35.69989   197.79328
 Coeff:                 0.27070     0.30552     0.18297     0.10986     0.06810     0.04224


 Symmetry turned off. Reference energy:       -137.808558468595

 All pairs explicitly correlated. Number of r12-pairs:           21

 Excluding core orbitals from MO domains

 AO(A)-basis ORBITAL           loaded. Number of functions:      69
 RI(R)-basis CC-PVDZ-F12/OPTRI loaded. Number of functions:     154
 DF-basis AUG-CC-PVDZ/JKFIT    loaded. Number of functions:     204

 Screening thresholds:   THRAO=  1.00D-10  THRMO=  1.00D-10  THRPROD=  1.00D-10
                         THRSW=  1.00D-07  THROV=  1.00D-12  THRAOF12= 1.00D-08

 CPU time for Fock operators                      0.90 sec

 Construction of ABS:
 Smallest eigenvalue of S          3.65E-03  (threshold= 1.00E-08)
 Ratio eigmin/eigmax               7.68E-04  (threshold= 1.00E-09)
 Smallest eigenvalue of S kept     3.65E-03  (threshold= 3.65E-03, 0 functions deleted, 154 kept)

 Construction of CABS:
 Smallest eigenvalue of S          9.72E-06  (threshold= 1.00E-08)
 Ratio eigmin/eigmax               9.72E-06  (threshold= 1.00E-09)
 Smallest eigenvalue of S kept     9.72E-06  (threshold= 9.72E-06, 0 functions deleted, 154 kept)

 CPU time for CABS singles                        0.01 sec

 CABS-singles contribution of  -0.00661150 patched into reference energy.
 New reference energy        -137.81516997

 AO(A)-basis ORBITAL           loaded. Number of functions:      69
 RI(R)-basis CC-PVDZ-F12/OPTRI loaded. Number of functions:     154
 DF-basis AUG-CC-PVDZ/MP2FIT   loaded. Number of functions:     167

 Screening thresholds:   THRAO=  1.00D-10  THRMO=  1.00D-10  THRPROD=  1.00D-10
                         THRSW=  1.00D-07  THROV=  1.00D-12  THRAOF12= 1.00D-08

 CPU time for 3-index integral evaluation         0.41 sec
 CPU time for first  half transformation          0.01 sec (15196.5 MFLOP/sec)
 CPU time for tilde quantities                    0.01 sec (10307.8 MFLOP/sec)
 CPU time for assembly                            0.04 sec (19371.9 MFLOP/sec)
 CPU time for tranop_f12                          0.05 sec (20899.9 MFLOP/sec)
 CPU time for f12 integrals (total)               1.22 sec, Elapsed time:      1.27 sec
 CPU time for f12 matrices (total)                0.01 sec, Elapsed time:      0.02 sec

 Diagonal F12 approximation with fixed coefficients:  TSING= 0.500,  TTRIP= 0.250 (scaled by -1/beta)

 DF-MP2-F12 energy corrections:
 ==============================
 Approx.                                    Singlet             Triplet             Total
 DF-MP2-F12/3*C(DX,FIX)                -0.078297659416     -0.016356131087     -0.094653790503
 DF-MP2-F12/3*C(FIX)                   -0.068986622508     -0.015365921538     -0.084352544046
 DF-MP2-F12/3C(FIX)                    -0.069680709688     -0.016168659627     -0.085849369315

 DF-MP2-F12 correlation energies:
 ================================
 Approx.                                    Singlet             Triplet             Ecorr            Total Energy
 DF-MP2                                -0.222772359606     -0.131390152865     -0.354162512471   -138.169332483941
 DF-MP2-F12/3*C(DX,FIX)                -0.301070019022     -0.147746283952     -0.448816302974   -138.263986274444
 DF-MP2-F12/3*C(FIX)                   -0.291758982114     -0.146756074403     -0.438515056516   -138.253685027987
 DF-MP2-F12/3C(FIX)                    -0.292453069293     -0.147558812492     -0.440011881785   -138.255181853256

 SCS-DF-MP2 energies (F_SING= 1.20000  F_TRIP= 0.62222  F_PARALLEL= 0.33333):
 ============================================================================
 SCS-DF-MP2                            -0.349080704421   -138.164250675891
 SCS-DF-MP2-F12/3*C(DX,FIX)            -0.453215043952   -138.268385015422
 SCS-DF-MP2-F12/3*C(FIX)               -0.441425669276   -138.256595640746
 SCS-DF-MP2-F12/3C(FIX)                -0.442758055369   -138.257928026840

 Symmetry restored.
 Symmetry transformation completed.

 Number of N-1 electron functions:               6
 Number of N-2 electron functions:              21
 Number of singly external CSFs:               229
 Number of doubly external CSFs:             35788
 Total number of CSFs:                       36018

 Length of J-op  integral file:              15.24 MB
 Length of K-op  integral file:              18.55 MB
 Length of 3-ext integral record:             0.00 MB

 Memory could be reduced to 1.16 Mwords without degradation in triples

 Integral transformation finished. Total CPU:   0.03 sec, npass=  1  Memory used:   0.52 MW

 Reference energy:                   -137.81516997

 Adding F12 terms to K(Cij), methodcc=6,  factor= 1.0

 ITER.      SQ.NORM     CORR.ENERGY   TOTAL ENERGY   ENERGY CHANGE        DEN1      VAR(S)    VAR(P)  DIIS     TIME  TIME/IT
   1      1.09163736    -0.36081827  -138.17598824    -0.00656157     0.00471622  0.25D-02  0.21D-02  1  1     2.28     0.05
   2      1.10088531    -0.36156862  -138.17673859    -0.00075035    -0.00891081  0.76D-04  0.49D-03  2  2     2.33     0.05
   3      1.10704100    -0.36232887  -138.17749884    -0.00076025    -0.00245710  0.80D-04  0.77D-04  3  3     2.37     0.05
   4      1.11070335    -0.36250874  -138.17767871    -0.00017988    -0.00126511  0.62D-05  0.20D-04  4  4     2.42     0.05
   5      1.11260335    -0.36255383  -138.17772380    -0.00004509    -0.00032753  0.70D-06  0.38D-05  5  5     2.48     0.05
   6      1.11331196    -0.36255033  -138.17772030     0.00000350    -0.00004961  0.12D-06  0.61D-06  6  6     2.53     0.05
   7      1.11346144    -0.36255491  -138.17772488    -0.00000458    -0.00001350  0.66D-07  0.79D-07  6  2     2.58     0.05
   8      1.11346828    -0.36255635  -138.17772632    -0.00000144     0.00000552  0.86D-08  0.12D-07  6  1     2.64     0.06
   9      1.11347039    -0.36255706  -138.17772703    -0.00000071     0.00000027  0.26D-08  0.15D-08  6  4     2.68     0.06
  10      1.11347016    -0.36255741  -138.17772738    -0.00000035     0.00000053  0.27D-09  0.23D-09  6  3     2.73     0.06
  11      1.11346847    -0.36255741  -138.17772738     0.00000000     0.00000016  0.59D-10  0.29D-10  6  6     2.78     0.06
  12      1.11346856    -0.36255745  -138.17772742    -0.00000004     0.00000011  0.67D-11  0.42D-11  6  5     2.82     0.06
  13      1.11346837    -0.36255746  -138.17772743    -0.00000001     0.00000004  0.16D-11  0.92D-12  6  2     2.87     0.06
  14      1.11346823    -0.36255746  -138.17772743    -0.00000001     0.00000003  0.17D-12  0.25D-12  6  1     2.93     0.06
  15      1.11346810    -0.36255746  -138.17772744    -0.00000000     0.00000001  0.18D-13  0.57D-13  6  4     2.98     0.06
  16      1.11346804    -0.36255746  -138.17772744    -0.00000000     0.00000001  0.31D-14  0.14D-13  6  3     3.03     0.06
  17      1.11346800    -0.36255747  -138.17772744    -0.00000000     0.00000001  0.23D-14  0.22D-14  6  6     3.08     0.06
  18      1.11346799    -0.36255746  -138.17772744     0.00000000     0.00000000  0.37D-15  0.28D-15  6  5     3.13     0.06
  19      1.11346800    -0.36255746  -138.17772744     0.00000000    -0.00000000  0.13D-15  0.50D-16  6  2     3.18     0.06
  20      1.11346800    -0.36255746  -138.17772744     0.00000000    -0.00000000  0.11D-16  0.99D-17  6  1     3.22     0.06
  21      1.11346800    -0.36255746  -138.17772744     0.00000000    -0.00000000  0.40D-17  0.19D-17  6  4     3.27     0.06
  22      1.11346800    -0.36255746  -138.17772744     0.00000000    -0.00000000  0.72D-18  0.38D-18  6  3     3.31     0.06
  23      1.11346800    -0.36255746  -138.17772744     0.00000000     0.00000000  0.15D-18  0.98D-19  6  6     3.36     0.06
  24      1.11346800    -0.36255746  -138.17772744     0.00000000     0.00000000  0.22D-19  0.35D-19  6  5     3.41     0.06
  25      1.11346800    -0.36255746  -138.17772744     0.00000000    -0.00000000  0.31D-20  0.13D-19  6  2     3.46     0.06

 Norm of t1 vector:      0.07604702      S-energy:     0.00000000      T1 diagnostic:  0.01552303
                                                                       D1 diagnostic:  0.04498952

 Adding energy correction from Wij-K(Fij), methodcc=6  factor= 1.0

  CCSD correlation energy              -0.362557464531
  MP2-F12 correction (uncoupled)       -0.080969013300
  C*T doubles correction               -0.002735946243
  f12b correction                       0.010118763662


 Total CPU time for triples:      0.25 sec


 RESULTS
 =======

  Reference energy                   -137.808558468595
  F12 singles correction               -0.006611502875

 F12 singles corrections added to reference energy

  New reference energy               -137.815169971470

  F12a singlet correction              -0.068268074525
  F12a triplet correction              -0.015436885019
  F12a total correction                -0.083704959543

 F12a corrections for ansatz F12/3C(FIX) added to CCSD energy

  CCSD-F12a singlet pair energy        -0.312338310786
  CCSD-F12a triplet pair energy        -0.133924113290
  CCSD-F12a correlation energy         -0.446262424075

  Triples (T) contribution             -0.012167926507
  Total correlation energy             -0.458430350582

  CCSD-F12a total energy             -138.261432395545
  CCSD[T]-F12a energy                -138.274593804898
  CCSD-T-F12a energy                 -138.273262679866
 !CCSD(T)-F12a total energy          -138.273600322053

 F12b corrections for ansatz F12/3C(FIX) added to CCSD(T)-F12a energy

  CCSD-F12b singlet pair energy        -0.303193334781
  CCSD-F12b triplet pair energy        -0.132950325633
  CCSD-F12b correlation energy         -0.436143660413

  Triples (T) contribution             -0.012167926507
  Total correlation energy             -0.448311586920

  CCSD-F12b total energy             -138.251313631883
  CCSD[T]-F12b energy                -138.264475041236
  CCSD-T-F12b energy                 -138.263143916204
 !CCSD(T)-F12b total energy          -138.263481558390

 Timing summary (sec):

 STEP                 CPU(USER)    SYS     CPU(TOT)    WALL
 Transformation          0.03      0.01      0.04      0.04
 CCSD iterations         1.26      0.15      1.41      1.44
 Triples                 0.25      0.02      0.27      0.27
 MP2-F12                 2.17      0.09      2.26      2.54
 F12b energy             0.03      0.00      0.03      0.04

 Program statistics:

 Available memory in ccsd:              1999999744
 Min. memory needed in ccsd:                136839
 Max. memory used in ccsd:                  163083
 Max. memory used in cckext:                208330 (26 integral passes)



 **********************************************************************************************************************************
 DATASETS  * FILE   NREC   LENGTH (MB)   RECORD NAMES
              1      20       45.77       500      610      700      900      950      970     1000      129      960     1100   
                                          VAR    BASINP    GEOM    SYMINP    ZMAT    AOBASIS   BASIS     P2S    ABASIS      S 
                                         1400     1410     1200     1210     1080     1600     1650     1300     1700     1380   
                                           T        V       H0       H01     AOSYM     SMH    MOLCAS    ERIS     OPER     JKOP   

              2       6        2.90       700     1000      520     2100     7360     7350   
                                         GEOM     BASIS   MCVARS     RHF    F12ABS    EF12   

 PROGRAMS   *        TOTAL   CCSD(T)    HF-SCF       INT
 CPU TIMES  *         5.06      3.76      0.26      0.90
 REAL TIME  *         7.40 SEC
 DISK USED  *        97.74 MB
 **********************************************************************************************************************************
 SETTING EE(1)          =      -138.26348156  AU                              


 Computing numerical gradient using default procedure for command CCSD(T)-F12

 *** Long output written to logfile /home/mdavis/f12eom_optimizer/tests/slurm/molpro_step.log ***


 Running default procedure: HF-SCF000  CCSD(T)-F12


 Generated   3 symmetrical displacements

 Numerical gradient for CCSD(T)-F12

 Total Energy          -138.26348156  Dipole moments:    0.000000    0.000000    0.000000

 Atom          dE/dx               dE/dy               dE/dz                  d2E/dx2             d2E/dy2             d2E/dz2
   1        -0.005629869         0.009303634         0.000000000            0.000000000         0.000000000         0.000000000
   2        -0.002769223        -0.043653702        -0.000000000            0.000000000         0.000000000         0.000000000
   3         0.008399093         0.034350068         0.000000000            0.000000000         0.000000000         0.000000000

 Recomputing wavefunction at initial geometry


 **********************************************************************************************************************************
 DATASETS  * FILE   NREC   LENGTH (MB)   RECORD NAMES
              1      21       45.99       500      610      700      900      701      950      970     1000      129      960   
                                          VAR    BASINP    GEOM    SYMINP    GEOM     ZMAT    AOBASIS   BASIS     P2S    ABASIS    
                                         1100     1400     1410     1200     1210     1080     1600     1650     1300     1700   
                                           S        T        V       H0       H01     AOSYM     SMH    MOLCAS    ERIS     OPER   
                                         1380   
                                         JKOP   

              2       8        3.12       700     1000      520     2100     7360     7350      701     5600   
                                         GEOM     BASIS   MCVARS     RHF    F12ABS    EF12     GEOM     GINFO   

 PROGRAMS   *        TOTAL    FORCES    HF-SCF       INT   CCSD(T)    HF-SCF       INT
 CPU TIMES  *        40.48      3.75      0.04     31.63      3.76      0.26      0.90
 REAL TIME  *        50.33 SEC
 DISK USED  *       100.73 MB
 **********************************************************************************************************************************
 EE(1)            =     -138.263481558390 AU
 GRADX(1:3)       = [     -0.005629869371   -0.002769223487    0.008399092858] AU
 GRADY(1:3)       = [      0.009303634408   -0.043653702032    0.034350067624] AU
 GRADZ(1:3)       = [      0.000000000000   -0.000000000000    0.000000000000] AU

 CCSD(T)-F12/cc-pVDZ-F12 energy=   -138.263481558390

     CCSD(T)-F12          HF-SCF     CCSD(T)-F12          HF-SCF
   -138.26348156   -137.80855847   -138.26348156   -137.80855847
 **********************************************************************************************************************************
 Molpro calculation terminated
