
 Primary working directories    : /scratch/mdavis/molpro_step_2022-08-17_16_19_18/molpro.KOtwDTTOEu
 Secondary working directories  : /scratch/mdavis/molpro_step_2022-08-17_16_19_18/molpro.KOtwDTTOEu
 Wavefunction directory         : /home/mdavis/f12eom_optimizer/tests/slurm/./
 Main file repository           : /scratch/mdavis/molpro_step_2022-08-17_16_19_18/molpro.KOtwDTTOEu/

 id        : olemiss

 Nodes     nprocs
 node17       1

 Using customized tuning parameters: mindgm=1; mindgv=20; mindgc=4; mindgr=1; noblas=0; minvec=7
 default implementation of scratch files=df  


 Variables initialized (945), CPU time= 0.01 sec
 ***,part of geometry opt run
 memory, 2000.0, m;
 gthresh,energy=1.d-12,zero=1.d-22,oneint=1.d-22,twoint=1.d-22;
 gthresh,optgrad=1.d-8,optstep=1.d-8;
 nocompress;
 bohr;
 geometry={
      3
 Fragment 1
     H  -1.2868457102   2.0733428251   0.0000000000
     C   0.5313275746   0.9770664531   0.0000000000
     F   0.0691300796  -1.3923332890   0.0000000000
      }
 
 set,charge=0
 set,spin=0
 basis=vdz-f12
 hf,maxit=500;wf,charge=0,spin=0;accu,20;
 ccsd(t)-f12,maxit=250;wf,charge=0,spin=0;orbital,IGNORE_ERROR;
 ee(1)=energy(2)
 forces,varsav
 SHOW[f18.12],ee(1)
 SHOW[f18.12],GRADX
 SHOW[f18.12],GRADY
 SHOW[f18.12],GRADZ
 Commands  initialized (802), CPU time= 0.01 sec, 659 directives.
 Default parameters read. Elapsed time= 0.10 sec

 Checking input...
 Passed
1


                                         ***  PROGRAM SYSTEM MOLPRO  ***
                                       Copyright, TTI GmbH Stuttgart, 2015
                                    Version 2020.1 linked Oct  6 2020 12:04:11


 **********************************************************************************************************************************
 LABEL *   part of geometry opt run                                                      
  64 bit serial version                                                                  DATE: 17-Aug-22          TIME: 16:19:19  
 **********************************************************************************************************************************

 SHA1:             8c27446f6450a7499e38f603e13c65f775101d37
 **********************************************************************************************************************************

 Memory per process:      2000 MW
 Total memory per node:   2000 MW

 GA preallocation disabled
 GA check disabled

 Variable memory set to 2000.0 MW


 THRESHOLDS:

 ZERO    =  1.00D-22  ONEINT  =  1.00D-22  TWOINT  =  1.00D-22  PREFAC  =  1.00D-14  XXXXXX  =  1.00D-09  EORDER  =  1.00D-04
 ENERGY  =  1.00D-12  ETEST   =  0.00D+00  EDENS   =  0.00D+00  THRDEDEF=  1.00D-06  GRADIENT=  1.00D-05  STEP    =  1.00D-03
 ORBITAL =  1.00D-05  CIVEC   =  1.00D-05  COEFF   =  1.00D-04  PRINTCI =  5.00D-02  PUNCHCI =  9.90D+01  OPTGRAD =  3.00D-04
 OPTENERG=  1.00D-06  OPTSTEP =  3.00D-04  THRGRAD =  1.00D-10  COMPRESS=  1.00D-11  VARMIN  =  1.00D-07  VARMAX  =  1.00D-03
 THRDOUB =  0.00D+00  THRDIV  =  1.00D-05  THRRED  =  1.00D-07  THRPSP  =  1.00D+00  THRDC   =  1.00D-10  THRCS   =  1.00D-10
 THRNRM  =  1.00D-08  THREQ   =  0.00D+00  THRDE   =  1.00D+00  THRREF  =  1.00D-05  SPARFAC =  1.00D+00  THRDLP  =  1.00D-07
 THRDIA  =  1.00D-10  THRDLS  =  1.00D-07  THRGPS  =  0.00D+00  THRKEX  =  0.00D+00  THRDIS  =  2.00D-01  THRVAR  =  1.00D-10
 THRLOC  =  1.00D-06  THRGAP  =  1.00D-06  THRLOCT = -1.00D+00  THRGAPT = -1.00D+00  THRORB  =  1.00D-06  THRMLTP =  0.00D+00
 THRCPQCI=  1.00D-10  KEXTA   =  0.00D+00  THRCOARS=  0.00D+00  SYMTOL  =  1.00D-06  GRADTOL =  1.00D-06  THROVL  =  1.00D-08
 THRORTH =  1.00D-08  GRID    =  1.00D-06  GRIDMAX =  1.00D-03  DTMAX   =  0.00D+00  THROCCDE=  1.00D-01  THROCCDE=  1.00D-01
 THRPRINT=  2.50D-01


 THRESHOLDS:

 ZERO    =  1.00D-22  ONEINT  =  1.00D-22  TWOINT  =  1.00D-22  PREFAC  =  1.00D-14  XXXXXX  =  1.00D-09  EORDER  =  1.00D-04
 ENERGY  =  1.00D-12  ETEST   =  0.00D+00  EDENS   =  0.00D+00  THRDEDEF=  1.00D-06  GRADIENT=  1.00D-05  STEP    =  1.00D-03
 ORBITAL =  1.00D-05  CIVEC   =  1.00D-05  COEFF   =  1.00D-04  PRINTCI =  5.00D-02  PUNCHCI =  9.90D+01  OPTGRAD =  1.00D-08
 OPTENERG=  1.00D-06  OPTSTEP =  1.00D-08  THRGRAD =  1.00D-10  COMPRESS=  1.00D-11  VARMIN  =  1.00D-07  VARMAX  =  1.00D-03
 THRDOUB =  0.00D+00  THRDIV  =  1.00D-05  THRRED  =  1.00D-07  THRPSP  =  1.00D+00  THRDC   =  1.00D-10  THRCS   =  1.00D-10
 THRNRM  =  1.00D-08  THREQ   =  0.00D+00  THRDE   =  1.00D+00  THRREF  =  1.00D-05  SPARFAC =  1.00D+00  THRDLP  =  1.00D-07
 THRDIA  =  1.00D-10  THRDLS  =  1.00D-07  THRGPS  =  0.00D+00  THRKEX  =  0.00D+00  THRDIS  =  2.00D-01  THRVAR  =  1.00D-10
 THRLOC  =  1.00D-06  THRGAP  =  1.00D-06  THRLOCT = -1.00D+00  THRGAPT = -1.00D+00  THRORB  =  1.00D-06  THRMLTP =  0.00D+00
 THRCPQCI=  1.00D-10  KEXTA   =  0.00D+00  THRCOARS=  0.00D+00  SYMTOL  =  1.00D-06  GRADTOL =  1.00D-06  THROVL  =  1.00D-08
 THRORTH =  1.00D-08  GRID    =  1.00D-06  GRIDMAX =  1.00D-03  DTMAX   =  0.00D+00  THROCCDE=  1.00D-01  THROCCDE=  1.00D-01
 THRPRINT=  2.50D-01


 Input parameters for SORTINT:

 COMPRESS =    0.000000
 C_FINAL  =    1.000000
 DEBUG    =   -1.000000
 C_SORT1  =    0.000000
 C_SEWARD =    0.000000
 THRESH   =    0.000000
 IO       =  molpro                                                                                                                          
 SPRI     =    0.000000
 ZUNIT=BOHR


 Geometry recognized as XYZ

 SETTING CHARGE         =     0.00000000D+00                                  
 SETTING SPIN           =     0.00000000D+00                                  
 SETTING BASIS          =    VDZ-F12


 Recomputing integrals since basis changed


 Using spherical harmonics

 Library entry H      S cc-pVDZ-F12          selected for orbital group  1
 Library entry H      P cc-pVDZ-F12          selected for orbital group  1
 Library entry C      S cc-pVDZ-F12          selected for orbital group  2
 Library entry C      P cc-pVDZ-F12          selected for orbital group  2
 Library entry C      D cc-pVDZ-F12          selected for orbital group  2
 Library entry F      S cc-pVDZ-F12          selected for orbital group  3
 Library entry F      P cc-pVDZ-F12          selected for orbital group  3
 Library entry F      D cc-pVDZ-F12          selected for orbital group  3


 PROGRAM * SEWARD (Integral evaluation for generally contracted gaussian basis sets)     Author: Roland Lindh, 1990

 Geometry written to block  1 of record 700


 Point group  Cs  



 ATOMIC COORDINATES

 NR  ATOM    CHARGE       X              Y              Z

   1  H       1.00   -1.286845710    2.073342825    0.000000000
   2  C       6.00    0.531327575    0.977066453    0.000000000
   3  F       9.00    0.069130080   -1.392333289    0.000000000

 Bond lengths in Bohr (Angstrom)

 1-2  2.123105268  2-3  2.414059167
     ( 1.123498924)     ( 1.277465097)

 Bond angles

  1-2-3  110.05003707

 NUCLEAR CHARGE:                   16
 NUMBER OF PRIMITIVE AOS:          93
 NUMBER OF SYMMETRY AOS:           89
 NUMBER OF CONTRACTIONS:           69   (   49A'  +   20A"  )
 NUMBER OF INNER CORE ORBITALS:     0   (    0A'  +    0A"  )
 NUMBER OF OUTER CORE ORBITALS:     2   (    2A'  +    0A"  )
 NUMBER OF VALENCE ORBITALS:        9   (    7A'  +    2A"  )


 NUCLEAR REPULSION ENERGY   27.61339017

 Eigenvalues of metric

         1 0.152E-02 0.305E-02 0.323E-02 0.332E-02 0.390E-02 0.468E-02 0.470E-02 0.914E-02
         2 0.330E-02 0.468E-02 0.792E-01 0.926E-01 0.135E+00 0.165E+00 0.246E+00 0.383E+00


 Contracted 2-electron integrals neglected if value below      1.0D-22

        1426049. INTEGRALS WRITTEN OUT IN     349 BLOCKS ON RECORD 1290 OF FILE 1


 NUMBER OF SORTED TWO-ELECTRON INTEGRALS:    1544830.     BUFFER LENGTH:  32768
 NUMBER OF SEGMENTS:   1  SEGMENT LENGTH:    1544830      RECORD LENGTH: 524288

 Memory used in sort:       2.10 MW

 SORT1 READ     1426049. AND WROTE     1455925. INTEGRALS IN      5 RECORDS. CPU TIME:     0.03 SEC, REAL TIME:     0.04 SEC
 SORT2 READ     1455925. AND WROTE     1544830. INTEGRALS IN      1 RECORDS. CPU TIME:     0.05 SEC, REAL TIME:     0.07 SEC

 FILE SIZES:   FILE 1:    53.0 MBYTE,  FILE 4:    21.0 MBYTE,   TOTAL:     74.0 MBYTE

 OPERATOR DM      FOR CENTER  0  COORDINATES:    0.000000    0.000000    0.000000


 **********************************************************************************************************************************
 DATASETS  * FILE   NREC   LENGTH (MB)   RECORD NAMES
              1      19       42.18       500      610      700      900      950      970     1000      129      960     1100   
                                          VAR    BASINP    GEOM    SYMINP    ZMAT    AOBASIS   BASIS     P2S    ABASIS      S 
                                         1400     1410     1200     1210     1080     1600     1650     1300     1700   
                                           T        V       H0       H01     AOSYM     SMH    MOLCAS    ERIS     OPER   

 PROGRAMS   *        TOTAL       INT
 CPU TIMES  *         1.03      0.89
 REAL TIME  *         2.94 SEC
 DISK USED  *        74.32 MB
 **********************************************************************************************************************************


 PROGRAM * RHF-SCF (CLOSED SHELL)       Authors: W. Meyer, H.-J. Werner


 NUMBER OF ELECTRONS:       8+    8-
 CONVERGENCE THRESHOLDS:    1.00E-10 (Density)    1.00E-13 (Energy)
 MAX. NUMBER OF ITERATIONS:      500
 INTERPOLATION TYPE:            DIIS
 INTERPOLATION STEPS:              2 (START)      1 (STEP)
 LEVEL SHIFTS:                  0.00 (CLOSED)  0.00 (OPEN) 



 Orbital guess generated from atomic densities. Full valence occupancy:    9   2

 Molecular orbital dump at record        2100.2

 Initial occupancy:   7   1

 ITERATION    DDIFF          GRAD             ENERGY        2-EL.EN.            DIPOLE MOMENTS         DIIS   ORB.
    1      0.000D+00      0.000D+00      -137.77898399    157.723699   -0.73922    0.05166    0.00000    0    start
    2      0.000D+00      0.101D-01      -137.80447901    158.894917   -0.68569    0.03089    0.00000    1    diag
    3      0.138D-01      0.347D-02      -137.80716827    159.098676   -0.64865    0.12851    0.00000    2    diag
    4      0.380D-02      0.111D-02      -137.80747198    158.911276   -0.64614    0.12400    0.00000    3    diag
    5      0.110D-02      0.320D-03      -137.80752295    158.979991   -0.64406    0.13518    0.00000    4    diag
    6      0.418D-03      0.773D-04      -137.80752833    158.979984   -0.64308    0.13743    0.00000    5    diag
    7      0.150D-03      0.246D-04      -137.80752885    158.980516   -0.64311    0.13767    0.00000    6    diag
    8      0.546D-04      0.507D-05      -137.80752887    158.980338   -0.64311    0.13760    0.00000    7    diag
    9      0.109D-04      0.937D-06      -137.80752887    158.980362   -0.64312    0.13757    0.00000    8    diag
   10      0.219D-05      0.201D-06      -137.80752887    158.980360   -0.64313    0.13756    0.00000    9    orth
   11      0.580D-06      0.509D-07      -137.80752887    158.980359   -0.64313    0.13756    0.00000    9    diag
   12      0.147D-06      0.110D-07      -137.80752887    158.980359   -0.64313    0.13756    0.00000    9    diag
   13      0.245D-07      0.262D-08      -137.80752887    158.980359   -0.64313    0.13756    0.00000    9    diag
   14      0.579D-08      0.691D-09      -137.80752887    158.980359   -0.64313    0.13756    0.00000    9    diag
   15      0.155D-08      0.156D-09      -137.80752887    158.980359   -0.64313    0.13756    0.00000    9    diag
   16      0.197D-09      0.449D-10      -137.80752887    158.980359   -0.64313    0.13756    0.00000    9    diag
   17      0.746D-10      0.775D-11      -137.80752887    158.980359   -0.64313    0.13756    0.00000    9    diag
   18      0.174D-10      0.177D-11      -137.80752887    158.980359   -0.64313    0.13756    0.00000    9    diag
   19      0.384D-11      0.470D-12      -137.80752887    158.980359   -0.64313    0.13756    0.00000    9    fixocc
   20      0.123D-11      0.109D-12      -137.80752887    158.980359   -0.64313    0.13756    0.00000    0    orth

 Final occupancy:   7   1

 !RHF STATE  1.1 Energy              -137.807528871109
 Nuclear energy                        27.61339017
 One-electron energy                 -244.91109839
 Two-electron energy                   79.49017935
 Virial quotient                       -1.00056733
 !RHF STATE  1.1 Dipole moment         -0.64312889     0.13756138     0.00000000
 Dipole moment /Debye                  -1.63456352     0.34962325     0.00000000

 Orbital energies:

         1.1          2.1          3.1          4.1          5.1          6.1          7.1          8.1          9.1
    -26.371577   -11.365438    -1.704242    -0.936247    -0.778832    -0.685467    -0.394330     0.069524     0.082260

         1.2          2.2          3.2
     -0.729236     0.046532     0.127563


 HOMO      7.1    -0.394330 =     -10.7303eV
 LUMO      2.2     0.046532 =       1.2662eV
 LUMO-HOMO         0.440862 =      11.9965eV


 **********************************************************************************************************************************
 DATASETS  * FILE   NREC   LENGTH (MB)   RECORD NAMES
              1      19       42.18       500      610      700      900      950      970     1000      129      960     1100   
                                          VAR    BASINP    GEOM    SYMINP    ZMAT    AOBASIS   BASIS     P2S    ABASIS      S 
                                         1400     1410     1200     1210     1080     1600     1650     1300     1700   
                                           T        V       H0       H01     AOSYM     SMH    MOLCAS    ERIS     OPER   

              2       4        2.84       700     1000      520     2100   
                                         GEOM     BASIS   MCVARS     RHF  

 PROGRAMS   *        TOTAL    HF-SCF       INT
 CPU TIMES  *         1.34      0.31      0.89
 REAL TIME  *         3.31 SEC
 DISK USED  *        74.32 MB
 **********************************************************************************************************************************


 PROGRAM * CCSD (Closed-shell coupled cluster)     Authors: C. Hampel, H.-J. Werner, 1991, M. Deegan, P.J. Knowles, 1992

                                  CCSD-F12 implementation by  H.-J. Werner, 2007

                   Density fitting integral evaluation by F.R. Manby, 2003,2007, G. Knizia, 2010


 Basis set AUG-CC-PVDZ/JKFIT generated.  Number of basis functions:   204 
 Basis set CC-PVDZ-F12/OPTRI generated.  Number of basis functions:   154 
 Basis set AUG-CC-PVDZ/MP2FIT generated. Number of basis functions:   167 

 Convergence thresholds:  THRVAR = 1.00D-16  THRDEN = 1.00D-12

 CCSD(T)     terms to be evaluated (factor= 1.000)


 Number of core orbitals:           2 (   2   0 )
 Number of closed-shell orbitals:   6 (   5   1 )
 Number of external orbitals:      61 (  42  19 )

 Molecular orbitals read from record     2100.2  Type=RHF/CANONICAL (state 1.1)

 MP2-F12 correlation treatment (H.-J. Werner, 2006)
 ==================================================

 Using MP2-F12 with ansatz 3C(FIX)

 Using projected zeroth-order Hamiltonian (+Z)

 FOCKRIB=T FOCKRIC=T FOCKRIP=T CABSP=T CABSA=T CABSK=T CABSF=T GBC=F EBC=F DMAT=T NOFIK=T NOPAO=1 SOLVE=-1  USEPAO=0
 EXCH_A= T EXCH_B= F EXCH_C= F EXCH_P= F

 Geminal basis:    OPTFULL  GEM_TYPE=SLATER  BETA=1.0  NGEM=6

 Optimizing Gaussian exponents for each gem_beta

 Geminal optimization for beta= 1.0000
 Weight function:   m=0, omega= 1.4646

 Augmented Hessian optimization of geminal fit. Trust ratio= 0.40000
 Convergence reached after   2 iterations. Final gradient= 8.66D-16, Step= 4.23D-06, Delta= 1.28D-09

 Alpha:                 0.19532     0.81920     2.85917     9.50073    35.69989   197.79328
 Coeff:                 0.27070     0.30552     0.18297     0.10986     0.06810     0.04224


 Symmetry turned off. Reference energy:       -137.807528871109

 All pairs explicitly correlated. Number of r12-pairs:           21

 Excluding core orbitals from MO domains

 AO(A)-basis ORBITAL           loaded. Number of functions:      69
 RI(R)-basis CC-PVDZ-F12/OPTRI loaded. Number of functions:     154
 DF-basis AUG-CC-PVDZ/JKFIT    loaded. Number of functions:     204

 Screening thresholds:   THRAO=  1.00D-10  THRMO=  1.00D-10  THRPROD=  1.00D-10
                         THRSW=  1.00D-07  THROV=  1.00D-12  THRAOF12= 1.00D-08

 CPU time for Fock operators                      0.88 sec

 Construction of ABS:
 Smallest eigenvalue of S          3.49E-03  (threshold= 1.00E-08)
 Ratio eigmin/eigmax               7.41E-04  (threshold= 1.00E-09)
 Smallest eigenvalue of S kept     3.49E-03  (threshold= 3.49E-03, 0 functions deleted, 154 kept)

 Construction of CABS:
 Smallest eigenvalue of S          9.84E-06  (threshold= 1.00E-08)
 Ratio eigmin/eigmax               9.84E-06  (threshold= 1.00E-09)
 Smallest eigenvalue of S kept     9.84E-06  (threshold= 9.84E-06, 0 functions deleted, 154 kept)

 CPU time for CABS singles                        0.01 sec

 CABS-singles contribution of  -0.00658830 patched into reference energy.
 New reference energy        -137.81411717

 AO(A)-basis ORBITAL           loaded. Number of functions:      69
 RI(R)-basis CC-PVDZ-F12/OPTRI loaded. Number of functions:     154
 DF-basis AUG-CC-PVDZ/MP2FIT   loaded. Number of functions:     167

 Screening thresholds:   THRAO=  1.00D-10  THRMO=  1.00D-10  THRPROD=  1.00D-10
                         THRSW=  1.00D-07  THROV=  1.00D-12  THRAOF12= 1.00D-08

 CPU time for 3-index integral evaluation         0.40 sec
 CPU time for first  half transformation          0.03 sec ( 5065.5 MFLOP/sec)
 CPU time for assembly                            0.03 sec (25829.3 MFLOP/sec)
 CPU time for tranop_f12                          0.03 sec (34833.1 MFLOP/sec)
 CPU time for f12 integrals (total)               1.18 sec, Elapsed time:      1.26 sec
 CPU time for f12 matrices (total)                0.02 sec, Elapsed time:      0.02 sec

 Diagonal F12 approximation with fixed coefficients:  TSING= 0.500,  TTRIP= 0.250 (scaled by -1/beta)

 DF-MP2-F12 energy corrections:
 ==============================
 Approx.                                    Singlet             Triplet             Total
 DF-MP2-F12/3*C(DX,FIX)                -0.078276515373     -0.016285130036     -0.094561645409
 DF-MP2-F12/3*C(FIX)                   -0.069009100808     -0.015300389138     -0.084309489946
 DF-MP2-F12/3C(FIX)                    -0.069691392655     -0.016097200210     -0.085788592866

 DF-MP2-F12 correlation energies:
 ================================
 Approx.                                    Singlet             Triplet             Ecorr            Total Energy
 DF-MP2                                -0.222861558347     -0.131460213060     -0.354321771407   -138.168438938156
 DF-MP2-F12/3*C(DX,FIX)                -0.301138073720     -0.147745343096     -0.448883416816   -138.263000583565
 DF-MP2-F12/3*C(FIX)                   -0.291870659155     -0.146760602198     -0.438631261352   -138.252748428102
 DF-MP2-F12/3C(FIX)                    -0.292552951002     -0.147557413270     -0.440110364272   -138.254227531022

 SCS-DF-MP2 energies (F_SING= 1.20000  F_TRIP= 0.62222  F_PARALLEL= 0.33333):
 ============================================================================
 SCS-DF-MP2                            -0.349231335920   -138.163348502669
 SCS-DF-MP2-F12/3*C(DX,FIX)            -0.453296124168   -138.267413290918
 SCS-DF-MP2-F12/3*C(FIX)               -0.441562499020   -138.255679665769
 SCS-DF-MP2-F12/3C(FIX)                -0.442877042793   -138.256994209542

 Symmetry restored.
 Symmetry transformation completed.

 Number of N-1 electron functions:               6
 Number of N-2 electron functions:              21
 Number of singly external CSFs:               229
 Number of doubly external CSFs:             35788
 Total number of CSFs:                       36018

 Length of J-op  integral file:              15.24 MB
 Length of K-op  integral file:              18.55 MB
 Length of 3-ext integral record:             0.00 MB

 Memory could be reduced to 1.16 Mwords without degradation in triples

 Integral transformation finished. Total CPU:   0.03 sec, npass=  1  Memory used:   0.52 MW

 Reference energy:                   -137.81411717

 Adding F12 terms to K(Cij), methodcc=6,  factor= 1.0

 ITER.      SQ.NORM     CORR.ENERGY   TOTAL ENERGY   ENERGY CHANGE        DEN1      VAR(S)    VAR(P)  DIIS     TIME  TIME/IT
   1      1.09160236    -0.36083215  -138.17494932    -0.00641308     0.00493672  0.25D-02  0.21D-02  1  1     2.21     0.05
   2      1.10088323    -0.36156514  -138.17568231    -0.00073299    -0.00894676  0.76D-04  0.50D-03  2  2     2.26     0.05
   3      1.10714094    -0.36235318  -138.17647034    -0.00078803    -0.00245668  0.85D-04  0.84D-04  3  3     2.31     0.05
   4      1.11099169    -0.36255006  -138.17666723    -0.00019688    -0.00129888  0.68D-05  0.23D-04  4  4     2.36     0.05
   5      1.11313336    -0.36260424  -138.17672141    -0.00005418    -0.00036097  0.79D-06  0.45D-05  5  5     2.42     0.05
   6      1.11396432    -0.36260206  -138.17671923     0.00000218    -0.00005703  0.17D-06  0.72D-06  6  6     2.47     0.05
   7      1.11414536    -0.36260776  -138.17672493    -0.00000570    -0.00001581  0.90D-07  0.95D-07  6  2     2.52     0.05
   8      1.11415554    -0.36260961  -138.17672677    -0.00000184     0.00000621  0.12D-07  0.15D-07  6  1     2.57     0.06
   9      1.11416383    -0.36261025  -138.17672742    -0.00000064    -0.00000193  0.39D-08  0.19D-08  6  3     2.62     0.06
  10      1.11415985    -0.36261081  -138.17672797    -0.00000056     0.00000220  0.39D-09  0.32D-09  6  4     2.67     0.06
  11      1.11415806    -0.36261087  -138.17672803    -0.00000006     0.00000048  0.11D-09  0.35D-10  6  5     2.72     0.06
  12      1.11415712    -0.36261094  -138.17672811    -0.00000008     0.00000039  0.13D-10  0.81D-11  6  6     2.78     0.06
  13      1.11415662    -0.36261095  -138.17672811    -0.00000001     0.00000007  0.31D-11  0.19D-11  6  2     2.83     0.06
  14      1.11415627    -0.36261096  -138.17672812    -0.00000001     0.00000005  0.36D-12  0.65D-12  6  1     2.87     0.06
  15      1.11415605    -0.36261096  -138.17672813    -0.00000000     0.00000002  0.39D-13  0.21D-12  6  3     2.92     0.06
  16      1.11415593    -0.36261096  -138.17672813    -0.00000000     0.00000001  0.85D-14  0.64D-13  6  4     2.97     0.06
  17      1.11415585    -0.36261096  -138.17672813    -0.00000000     0.00000001  0.68D-14  0.11D-13  6  5     3.01     0.06
  18      1.11415582    -0.36261096  -138.17672813     0.00000000     0.00000000  0.12D-14  0.14D-14  6  6     3.05     0.06
  19      1.11415582    -0.36261096  -138.17672813    -0.00000000     0.00000000  0.19D-15  0.19D-15  6  1     3.10     0.06
  20      1.11415582    -0.36261096  -138.17672813     0.00000000    -0.00000000  0.12D-16  0.12D-16  6  5     3.14     0.06
  21      1.11415582    -0.36261096  -138.17672813    -0.00000000    -0.00000000  0.22D-17  0.12D-17  6  2     3.19     0.06
  22      1.11415582    -0.36261096  -138.17672813    -0.00000000     0.00000000  0.45D-18  0.18D-18  6  3     3.23     0.06
  23      1.11415582    -0.36261096  -138.17672813    -0.00000000     0.00000000  0.11D-18  0.33D-19  6  4     3.28     0.06
  24      1.11415582    -0.36261096  -138.17672813    -0.00000000     0.00000000  0.18D-19  0.85D-20  6  6     3.33     0.06
  25      1.11415582    -0.36261096  -138.17672813     0.00000000    -0.00000000  0.18D-20  0.14D-20  6  1     3.38     0.06
  26      1.11415582    -0.36261096  -138.17672813    -0.00000000    -0.00000000  0.14D-21  0.41D-21  6  5     3.44     0.06

 Norm of t1 vector:      0.07731247      S-energy:    -0.00000000      T1 diagnostic:  0.01578134
                                                                       D1 diagnostic:  0.04597415

 Doubles amplitudes (print threshold =  0.500E-01):

         I         J         SYM. A    SYM. B    A         B      T(IJ, AB)

         5         5         2         2         1         1     -0.05097483

 Adding energy correction from Wij-K(Fij), methodcc=6  factor= 1.0

  CCSD correlation energy              -0.362610960731
  MP2-F12 correction (uncoupled)       -0.080947709863
  C*T doubles correction               -0.002714065292
  f12b correction                       0.010145362956


 Total CPU time for triples:      0.27 sec


 RESULTS
 =======

  Reference energy                   -137.807528871109
  F12 singles correction               -0.006588295640

 F12 singles corrections added to reference energy

  New reference energy               -137.814117166749

  F12a singlet correction              -0.068291002495
  F12a triplet correction              -0.015370772660
  F12a total correction                -0.083661775155

 F12a corrections for ansatz F12/3C(FIX) added to CCSD energy

  CCSD-F12a singlet pair energy        -0.312414482516
  CCSD-F12a triplet pair energy        -0.133858253369
  CCSD-F12a correlation energy         -0.446272735886

  Triples (T) contribution             -0.012252404015
  Total correlation energy             -0.458525139901

  CCSD-F12a total energy             -138.260389902635
  CCSD[T]-F12a energy                -138.273663449404
  CCSD-T-F12a energy                 -138.272296599127
 !CCSD(T)-F12a total energy          -138.272642306650

 F12b corrections for ansatz F12/3C(FIX) added to CCSD(T)-F12a energy

  CCSD-F12b singlet pair energy        -0.303243129378
  CCSD-F12b triplet pair energy        -0.132884243552
  CCSD-F12b correlation energy         -0.436127372930

  Triples (T) contribution             -0.012252404015
  Total correlation energy             -0.448379776945

  CCSD-F12b total energy             -138.250244539679
  CCSD[T]-F12b energy                -138.263518086448
  CCSD-T-F12b energy                 -138.262151236172
 !CCSD(T)-F12b total energy          -138.262496943694

 Timing summary (sec):

 STEP                 CPU(USER)    SYS     CPU(TOT)    WALL
 Transformation          0.04      0.01      0.05      0.04
 CCSD iterations         1.29      0.16      1.45      1.49
 Triples                 0.27      0.01      0.28      0.28
 MP2-F12                 2.11      0.13      2.24      2.48
 F12b energy             0.02      0.00      0.02      0.03

 Program statistics:

 Available memory in ccsd:              1999999744
 Min. memory needed in ccsd:                136839
 Max. memory used in ccsd:                  163083
 Max. memory used in cckext:                208330 (27 integral passes)



 **********************************************************************************************************************************
 DATASETS  * FILE   NREC   LENGTH (MB)   RECORD NAMES
              1      20       45.77       500      610      700      900      950      970     1000      129      960     1100   
                                          VAR    BASINP    GEOM    SYMINP    ZMAT    AOBASIS   BASIS     P2S    ABASIS      S 
                                         1400     1410     1200     1210     1080     1600     1650     1300     1700     1380   
                                           T        V       H0       H01     AOSYM     SMH    MOLCAS    ERIS     OPER     JKOP   

              2       6        2.90       700     1000      520     2100     7360     7350   
                                         GEOM     BASIS   MCVARS     RHF    F12ABS    EF12   

 PROGRAMS   *        TOTAL   CCSD(T)    HF-SCF       INT
 CPU TIMES  *         5.10      3.76      0.31      0.89
 REAL TIME  *         7.65 SEC
 DISK USED  *        97.74 MB
 **********************************************************************************************************************************
 SETTING EE(1)          =      -138.26249694  AU                              


 Computing numerical gradient using default procedure for command CCSD(T)-F12

 *** Long output written to logfile /home/mdavis/f12eom_optimizer/tests/slurm/molpro_step.log ***


 Running default procedure: HF-SCF000  CCSD(T)-F12


 Generated   3 symmetrical displacements

 Numerical gradient for CCSD(T)-F12

 Total Energy          -138.26249694  Dipole moments:    0.000000    0.000000    0.000000

 Atom          dE/dx               dE/dy               dE/dz                  d2E/dx2             d2E/dy2             d2E/dz2
   1         0.007462311         0.014980376         0.000000000            0.000000000         0.000000000         0.000000000
   2        -0.025557024        -0.031111864         0.000000000            0.000000000         0.000000000         0.000000000
   3         0.018094713         0.016131488         0.000000000            0.000000000         0.000000000         0.000000000

 Recomputing wavefunction at initial geometry


 **********************************************************************************************************************************
 DATASETS  * FILE   NREC   LENGTH (MB)   RECORD NAMES
              1      21       45.99       500      610      700      900      701      950      970     1000      129      960   
                                          VAR    BASINP    GEOM    SYMINP    GEOM     ZMAT    AOBASIS   BASIS     P2S    ABASIS    
                                         1100     1400     1410     1200     1210     1080     1600     1650     1300     1700   
                                           S        T        V       H0       H01     AOSYM     SMH    MOLCAS    ERIS     OPER   
                                         1380   
                                         JKOP   

              2       8        3.12       700     1000      520     2100     7360     7350      701     5600   
                                         GEOM     BASIS   MCVARS     RHF    F12ABS    EF12     GEOM     GINFO   

 PROGRAMS   *        TOTAL    FORCES    HF-SCF       INT   CCSD(T)    HF-SCF       INT
 CPU TIMES  *        40.61      3.77      0.03     31.71      3.76      0.31      0.89
 REAL TIME  *        50.93 SEC
 DISK USED  *       100.73 MB
 **********************************************************************************************************************************
 EE(1)            =     -138.262496943695 AU
 GRADX(1:3)       = [      0.007462311337   -0.025557024225    0.018094712889] AU
 GRADY(1:3)       = [      0.014980375920   -0.031111863519    0.016131487599] AU
 GRADZ(1:3)       = [      0.000000000000    0.000000000000    0.000000000000] AU

 CCSD(T)-F12/cc-pVDZ-F12 energy=   -138.262496943695

     CCSD(T)-F12          HF-SCF     CCSD(T)-F12          HF-SCF
   -138.26249694   -137.80752887   -138.26249694   -137.80752887
 **********************************************************************************************************************************
 Molpro calculation terminated
