
 Primary working directories    : /scratch/mdavis/molpro_step_2022-08-18_17_40_43/molpro.sYJg6qB6Ay
 Secondary working directories  : /scratch/mdavis/molpro_step_2022-08-18_17_40_43/molpro.sYJg6qB6Ay
 Wavefunction directory         : /home/mdavis/f12eom_optimizer/tests/slurm/./
 Main file repository           : /scratch/mdavis/molpro_step_2022-08-18_17_40_43/molpro.sYJg6qB6Ay/

 id        : olemiss

 Nodes     nprocs
 node18       1

 Using customized tuning parameters: mindgm=1; mindgv=20; mindgc=4; mindgr=1; noblas=0; minvec=7
 default implementation of scratch files=df  


 Variables initialized (945), CPU time= 0.00 sec
 ***,part of geometry opt run
 memory, 2000.0, m;
 gthresh,energy=1.d-12,zero=1.d-22,oneint=1.d-22,twoint=1.d-22;
 gthresh,optgrad=1.d-8,optstep=1.d-8;
 nocompress;
 ang;
 geometry={
      3
 Fragment 1
     H  -0.7551210739   1.4335143201   0.0000000000
     C   0.1012816610   0.7665026459   0.0000000000
     F  -0.0325486430  -0.5419409767   0.0000000000
      }
 
 set,charge=0
 set,spin=0
 basis=vdz-f12
 hf,maxit=500;wf,charge=0,spin=0;accu,20;
 ccsd(t)-f12,maxit=250;wf,charge=0,spin=0;orbital,IGNORE_ERROR;
 ee(1)=energy(2)
 forces,varsav
 SHOW[f18.12],ee(1)
 SHOW[f18.12],GRADX
 SHOW[f18.12],GRADY
 SHOW[f18.12],GRADZ
 Commands  initialized (802), CPU time= 0.01 sec, 659 directives.
 Default parameters read. Elapsed time= 0.10 sec

 Checking input...
 Passed
1


                                         ***  PROGRAM SYSTEM MOLPRO  ***
                                       Copyright, TTI GmbH Stuttgart, 2015
                                    Version 2020.1 linked Oct  6 2020 12:04:11


 **********************************************************************************************************************************
 LABEL *   part of geometry opt run                                                      
  64 bit serial version                                                                  DATE: 18-Aug-22          TIME: 17:40:44  
 **********************************************************************************************************************************

 SHA1:             8c27446f6450a7499e38f603e13c65f775101d37
 **********************************************************************************************************************************

 Memory per process:      2000 MW
 Total memory per node:   2000 MW

 GA preallocation disabled
 GA check disabled

 Variable memory set to 2000.0 MW


 THRESHOLDS:

 ZERO    =  1.00D-22  ONEINT  =  1.00D-22  TWOINT  =  1.00D-22  PREFAC  =  1.00D-14  XXXXXX  =  1.00D-09  EORDER  =  1.00D-04
 ENERGY  =  1.00D-12  ETEST   =  0.00D+00  EDENS   =  0.00D+00  THRDEDEF=  1.00D-06  GRADIENT=  1.00D-05  STEP    =  1.00D-03
 ORBITAL =  1.00D-05  CIVEC   =  1.00D-05  COEFF   =  1.00D-04  PRINTCI =  5.00D-02  PUNCHCI =  9.90D+01  OPTGRAD =  3.00D-04
 OPTENERG=  1.00D-06  OPTSTEP =  3.00D-04  THRGRAD =  1.00D-10  COMPRESS=  1.00D-11  VARMIN  =  1.00D-07  VARMAX  =  1.00D-03
 THRDOUB =  0.00D+00  THRDIV  =  1.00D-05  THRRED  =  1.00D-07  THRPSP  =  1.00D+00  THRDC   =  1.00D-10  THRCS   =  1.00D-10
 THRNRM  =  1.00D-08  THREQ   =  0.00D+00  THRDE   =  1.00D+00  THRREF  =  1.00D-05  SPARFAC =  1.00D+00  THRDLP  =  1.00D-07
 THRDIA  =  1.00D-10  THRDLS  =  1.00D-07  THRGPS  =  0.00D+00  THRKEX  =  0.00D+00  THRDIS  =  2.00D-01  THRVAR  =  1.00D-10
 THRLOC  =  1.00D-06  THRGAP  =  1.00D-06  THRLOCT = -1.00D+00  THRGAPT = -1.00D+00  THRORB  =  1.00D-06  THRMLTP =  0.00D+00
 THRCPQCI=  1.00D-10  KEXTA   =  0.00D+00  THRCOARS=  0.00D+00  SYMTOL  =  1.00D-06  GRADTOL =  1.00D-06  THROVL  =  1.00D-08
 THRORTH =  1.00D-08  GRID    =  1.00D-06  GRIDMAX =  1.00D-03  DTMAX   =  0.00D+00  THROCCDE=  1.00D-01  THROCCDE=  1.00D-01
 THRPRINT=  2.50D-01


 THRESHOLDS:

 ZERO    =  1.00D-22  ONEINT  =  1.00D-22  TWOINT  =  1.00D-22  PREFAC  =  1.00D-14  XXXXXX  =  1.00D-09  EORDER  =  1.00D-04
 ENERGY  =  1.00D-12  ETEST   =  0.00D+00  EDENS   =  0.00D+00  THRDEDEF=  1.00D-06  GRADIENT=  1.00D-05  STEP    =  1.00D-03
 ORBITAL =  1.00D-05  CIVEC   =  1.00D-05  COEFF   =  1.00D-04  PRINTCI =  5.00D-02  PUNCHCI =  9.90D+01  OPTGRAD =  1.00D-08
 OPTENERG=  1.00D-06  OPTSTEP =  1.00D-08  THRGRAD =  1.00D-10  COMPRESS=  1.00D-11  VARMIN  =  1.00D-07  VARMAX  =  1.00D-03
 THRDOUB =  0.00D+00  THRDIV  =  1.00D-05  THRRED  =  1.00D-07  THRPSP  =  1.00D+00  THRDC   =  1.00D-10  THRCS   =  1.00D-10
 THRNRM  =  1.00D-08  THREQ   =  0.00D+00  THRDE   =  1.00D+00  THRREF  =  1.00D-05  SPARFAC =  1.00D+00  THRDLP  =  1.00D-07
 THRDIA  =  1.00D-10  THRDLS  =  1.00D-07  THRGPS  =  0.00D+00  THRKEX  =  0.00D+00  THRDIS  =  2.00D-01  THRVAR  =  1.00D-10
 THRLOC  =  1.00D-06  THRGAP  =  1.00D-06  THRLOCT = -1.00D+00  THRGAPT = -1.00D+00  THRORB  =  1.00D-06  THRMLTP =  0.00D+00
 THRCPQCI=  1.00D-10  KEXTA   =  0.00D+00  THRCOARS=  0.00D+00  SYMTOL  =  1.00D-06  GRADTOL =  1.00D-06  THROVL  =  1.00D-08
 THRORTH =  1.00D-08  GRID    =  1.00D-06  GRIDMAX =  1.00D-03  DTMAX   =  0.00D+00  THROCCDE=  1.00D-01  THROCCDE=  1.00D-01
 THRPRINT=  2.50D-01


 Input parameters for SORTINT:

 COMPRESS =    0.000000
 C_FINAL  =    1.000000
 DEBUG    =   -1.000000
 C_SORT1  =    0.000000
 C_SEWARD =    0.000000
 THRESH   =    0.000000
 IO       =  molpro                                                                                                                          
 SPRI     =    0.000000
 ZUNIT=ANG


 Geometry recognized as XYZ

 SETTING CHARGE         =     0.00000000D+00                                  
 SETTING SPIN           =     0.00000000D+00                                  
 SETTING BASIS          =    VDZ-F12


 Recomputing integrals since basis changed


 Using spherical harmonics

 Library entry H      S cc-pVDZ-F12          selected for orbital group  1
 Library entry H      P cc-pVDZ-F12          selected for orbital group  1
 Library entry C      S cc-pVDZ-F12          selected for orbital group  2
 Library entry C      P cc-pVDZ-F12          selected for orbital group  2
 Library entry C      D cc-pVDZ-F12          selected for orbital group  2
 Library entry F      S cc-pVDZ-F12          selected for orbital group  3
 Library entry F      P cc-pVDZ-F12          selected for orbital group  3
 Library entry F      D cc-pVDZ-F12          selected for orbital group  3


 PROGRAM * SEWARD (Integral evaluation for generally contracted gaussian basis sets)     Author: Roland Lindh, 1990

 Geometry written to block  1 of record 700


 Point group  Cs  



 ATOMIC COORDINATES

 NR  ATOM    CHARGE       X              Y              Z

   1  H       1.00   -1.426972021    2.708949461    0.000000000
   2  C       6.00    0.191394601    1.448480075    0.000000000
   3  F       9.00   -0.061508021   -1.024120022    0.000000000

 Bond lengths in Bohr (Angstrom)

 1-2  2.051315089  2-3  2.485500145
     ( 1.085509198)     ( 1.315270035)

 Bond angles

  1-2-3  122.07332059

 NUCLEAR CHARGE:                   16
 NUMBER OF PRIMITIVE AOS:          93
 NUMBER OF SYMMETRY AOS:           89
 NUMBER OF CONTRACTIONS:           69   (   49A'  +   20A"  )
 NUMBER OF INNER CORE ORBITALS:     0   (    0A'  +    0A"  )
 NUMBER OF OUTER CORE ORBITALS:     2   (    2A'  +    0A"  )
 NUMBER OF VALENCE ORBITALS:        9   (    7A'  +    2A"  )


 NUCLEAR REPULSION ENERGY   26.91513674

 Eigenvalues of metric

         1 0.169E-02 0.305E-02 0.326E-02 0.341E-02 0.346E-02 0.468E-02 0.470E-02 0.895E-02
         2 0.330E-02 0.468E-02 0.814E-01 0.935E-01 0.130E+00 0.165E+00 0.250E+00 0.385E+00


 Contracted 2-electron integrals neglected if value below      1.0D-22

        1426049. INTEGRALS WRITTEN OUT IN     349 BLOCKS ON RECORD 1290 OF FILE 1


 NUMBER OF SORTED TWO-ELECTRON INTEGRALS:    1544830.     BUFFER LENGTH:  32768
 NUMBER OF SEGMENTS:   1  SEGMENT LENGTH:    1544830      RECORD LENGTH: 524288

 Memory used in sort:       2.10 MW

 SORT1 READ     1426049. AND WROTE     1455925. INTEGRALS IN      5 RECORDS. CPU TIME:     0.03 SEC, REAL TIME:     0.04 SEC
 SORT2 READ     1455925. AND WROTE     1544830. INTEGRALS IN      1 RECORDS. CPU TIME:     0.05 SEC, REAL TIME:     0.07 SEC

 FILE SIZES:   FILE 1:    53.0 MBYTE,  FILE 4:    21.0 MBYTE,   TOTAL:     74.0 MBYTE

 OPERATOR DM      FOR CENTER  0  COORDINATES:    0.000000    0.000000    0.000000


 **********************************************************************************************************************************
 DATASETS  * FILE   NREC   LENGTH (MB)   RECORD NAMES
              1      19       42.18       500      610      700      900      950      970     1000      129      960     1100   
                                          VAR    BASINP    GEOM    SYMINP    ZMAT    AOBASIS   BASIS     P2S    ABASIS      S 
                                         1400     1410     1200     1210     1080     1600     1650     1300     1700   
                                           T        V       H0       H01     AOSYM     SMH    MOLCAS    ERIS     OPER   

 PROGRAMS   *        TOTAL       INT
 CPU TIMES  *         1.13      1.00
 REAL TIME  *         2.63 SEC
 DISK USED  *        74.32 MB
 **********************************************************************************************************************************


 PROGRAM * RHF-SCF (CLOSED SHELL)       Authors: W. Meyer, H.-J. Werner


 NUMBER OF ELECTRONS:       8+    8-
 CONVERGENCE THRESHOLDS:    1.00E-10 (Density)    1.00E-13 (Energy)
 MAX. NUMBER OF ITERATIONS:      500
 INTERPOLATION TYPE:            DIIS
 INTERPOLATION STEPS:              2 (START)      1 (STEP)
 LEVEL SHIFTS:                  0.00 (CLOSED)  0.00 (OPEN) 



 Orbital guess generated from atomic densities. Full valence occupancy:    9   2

 Molecular orbital dump at record        2100.2

 Initial occupancy:   7   1

 ITERATION    DDIFF          GRAD             ENERGY        2-EL.EN.            DIPOLE MOMENTS         DIIS   ORB.
    1      0.000D+00      0.000D+00      -137.76140661    156.629448   -0.85022    0.18587    0.00000    0    start
    2      0.000D+00      0.104D-01      -137.78861166    157.607741   -0.74062    0.13291    0.00000    1    diag
    3      0.146D-01      0.389D-02      -137.79193009    157.940288   -0.72346    0.24348    0.00000    2    diag
    4      0.429D-02      0.129D-02      -137.79232394    157.718952   -0.72004    0.23543    0.00000    3    diag
    5      0.123D-02      0.331D-03      -137.79239237    157.784359   -0.71873    0.24638    0.00000    4    diag
    6      0.512D-03      0.911D-04      -137.79240043    157.783730   -0.71803    0.24851    0.00000    5    diag
    7      0.203D-03      0.280D-04      -137.79240115    157.784069   -0.71808    0.24862    0.00000    6    diag
    8      0.691D-04      0.542D-05      -137.79240117    157.783856   -0.71806    0.24854    0.00000    7    diag
    9      0.118D-04      0.103D-05      -137.79240117    157.783887   -0.71807    0.24851    0.00000    8    diag
   10      0.254D-05      0.213D-06      -137.79240117    157.783887   -0.71808    0.24851    0.00000    9    orth
   11      0.627D-06      0.455D-07      -137.79240117    157.783887   -0.71808    0.24851    0.00000    9    diag
   12      0.134D-06      0.995D-08      -137.79240117    157.783887   -0.71808    0.24851    0.00000    9    diag
   13      0.253D-07      0.313D-08      -137.79240117    157.783887   -0.71808    0.24851    0.00000    9    diag
   14      0.878D-08      0.102D-08      -137.79240117    157.783887   -0.71808    0.24851    0.00000    9    diag
   15      0.302D-08      0.261D-09      -137.79240117    157.783887   -0.71808    0.24851    0.00000    9    diag
   16      0.375D-09      0.704D-10      -137.79240117    157.783887   -0.71808    0.24851    0.00000    9    diag
   17      0.135D-09      0.123D-10      -137.79240117    157.783887   -0.71808    0.24851    0.00000    9    diag
   18      0.260D-10      0.305D-11      -137.79240117    157.783887   -0.71808    0.24851    0.00000    9    diag
   19      0.661D-11      0.829D-12      -137.79240117    157.783887   -0.71808    0.24851    0.00000    0    orth

 Final occupancy:   7   1

 !RHF STATE  1.1 Energy              -137.792401174226
 Nuclear energy                        26.91513674
 One-electron energy                 -243.59948133
 Two-electron energy                   78.89194342
 Virial quotient                       -1.00097659
 !RHF STATE  1.1 Dipole moment         -0.71807736     0.24850678     0.00000000
 Dipole moment /Debye                  -1.82505104     0.63159987     0.00000000

 Orbital energies:

         1.1          2.1          3.1          4.1          5.1          6.1          7.1          8.1          9.1
    -26.365784   -11.365465    -1.680100    -0.927078    -0.767322    -0.702621    -0.383614     0.067138     0.080824

         1.2          2.2          3.2
     -0.715813     0.041698     0.124362


 HOMO      7.1    -0.383614 =     -10.4387eV
 LUMO      2.2     0.041698 =       1.1347eV
 LUMO-HOMO         0.425312 =      11.5733eV


 **********************************************************************************************************************************
 DATASETS  * FILE   NREC   LENGTH (MB)   RECORD NAMES
              1      19       42.18       500      610      700      900      950      970     1000      129      960     1100   
                                          VAR    BASINP    GEOM    SYMINP    ZMAT    AOBASIS   BASIS     P2S    ABASIS      S 
                                         1400     1410     1200     1210     1080     1600     1650     1300     1700   
                                           T        V       H0       H01     AOSYM     SMH    MOLCAS    ERIS     OPER   

              2       4        2.84       700     1000      520     2100   
                                         GEOM     BASIS   MCVARS     RHF  

 PROGRAMS   *        TOTAL    HF-SCF       INT
 CPU TIMES  *         1.40      0.27      1.00
 REAL TIME  *         3.02 SEC
 DISK USED  *        74.32 MB
 **********************************************************************************************************************************


 PROGRAM * CCSD (Closed-shell coupled cluster)     Authors: C. Hampel, H.-J. Werner, 1991, M. Deegan, P.J. Knowles, 1992

                                  CCSD-F12 implementation by  H.-J. Werner, 2007

                   Density fitting integral evaluation by F.R. Manby, 2003,2007, G. Knizia, 2010


 Basis set AUG-CC-PVDZ/JKFIT generated.  Number of basis functions:   204 
 Basis set CC-PVDZ-F12/OPTRI generated.  Number of basis functions:   154 
 Basis set AUG-CC-PVDZ/MP2FIT generated. Number of basis functions:   167 

 Convergence thresholds:  THRVAR = 1.00D-16  THRDEN = 1.00D-12

 CCSD(T)     terms to be evaluated (factor= 1.000)


 Number of core orbitals:           2 (   2   0 )
 Number of closed-shell orbitals:   6 (   5   1 )
 Number of external orbitals:      61 (  42  19 )

 Molecular orbitals read from record     2100.2  Type=RHF/CANONICAL (state 1.1)

 MP2-F12 correlation treatment (H.-J. Werner, 2006)
 ==================================================

 Using MP2-F12 with ansatz 3C(FIX)

 Using projected zeroth-order Hamiltonian (+Z)

 FOCKRIB=T FOCKRIC=T FOCKRIP=T CABSP=T CABSA=T CABSK=T CABSF=T GBC=F EBC=F DMAT=T NOFIK=T NOPAO=1 SOLVE=-1  USEPAO=0
 EXCH_A= T EXCH_B= F EXCH_C= F EXCH_P= F

 Geminal basis:    OPTFULL  GEM_TYPE=SLATER  BETA=1.0  NGEM=6

 Optimizing Gaussian exponents for each gem_beta

 Geminal optimization for beta= 1.0000
 Weight function:   m=0, omega= 1.4646

 Augmented Hessian optimization of geminal fit. Trust ratio= 0.40000
 Convergence reached after   2 iterations. Final gradient= 8.66D-16, Step= 4.23D-06, Delta= 1.28D-09

 Alpha:                 0.19532     0.81920     2.85917     9.50073    35.69989   197.79328
 Coeff:                 0.27070     0.30552     0.18297     0.10986     0.06810     0.04224


 Symmetry turned off. Reference energy:       -137.792401174226

 All pairs explicitly correlated. Number of r12-pairs:           21

 Excluding core orbitals from MO domains

 AO(A)-basis ORBITAL           loaded. Number of functions:      69
 RI(R)-basis CC-PVDZ-F12/OPTRI loaded. Number of functions:     154
 DF-basis AUG-CC-PVDZ/JKFIT    loaded. Number of functions:     204

 Screening thresholds:   THRAO=  1.00D-10  THRMO=  1.00D-10  THRPROD=  1.00D-10
                         THRSW=  1.00D-07  THROV=  1.00D-12  THRAOF12= 1.00D-08

 CPU time for Fock operators                      0.91 sec

 Construction of ABS:
 Smallest eigenvalue of S          3.05E-03  (threshold= 1.00E-08)
 Ratio eigmin/eigmax               6.62E-04  (threshold= 1.00E-09)
 Smallest eigenvalue of S kept     3.05E-03  (threshold= 3.05E-03, 0 functions deleted, 154 kept)

 Construction of CABS:
 Smallest eigenvalue of S          1.02E-05  (threshold= 1.00E-08)
 Ratio eigmin/eigmax               1.02E-05  (threshold= 1.00E-09)
 Smallest eigenvalue of S kept     1.02E-05  (threshold= 1.02E-05, 0 functions deleted, 154 kept)

 CPU time for CABS singles                        0.01 sec

 CABS-singles contribution of  -0.00655988 patched into reference energy.
 New reference energy        -137.79896105

 AO(A)-basis ORBITAL           loaded. Number of functions:      69
 RI(R)-basis CC-PVDZ-F12/OPTRI loaded. Number of functions:     154
 DF-basis AUG-CC-PVDZ/MP2FIT   loaded. Number of functions:     167

 Screening thresholds:   THRAO=  1.00D-10  THRMO=  1.00D-10  THRPROD=  1.00D-10
                         THRSW=  1.00D-07  THROV=  1.00D-12  THRAOF12= 1.00D-08

 CPU time for 3-index integral evaluation         0.40 sec
 CPU time for first  half transformation          0.03 sec ( 5065.5 MFLOP/sec)
 CPU time for tilde quantities                    0.01 sec (10307.8 MFLOP/sec)
 CPU time for assembly                            0.04 sec (19371.9 MFLOP/sec)
 CPU time for tranop_f12                          0.04 sec (26124.8 MFLOP/sec)
 CPU time for f12 integrals (total)               1.20 sec, Elapsed time:      1.26 sec
 CPU time for f12 matrices (total)                0.02 sec, Elapsed time:      0.02 sec

 Diagonal F12 approximation with fixed coefficients:  TSING= 0.500,  TTRIP= 0.250 (scaled by -1/beta)

 DF-MP2-F12 energy corrections:
 ==============================
 Approx.                                    Singlet             Triplet             Total
 DF-MP2-F12/3*C(DX,FIX)                -0.078203711813     -0.016089828146     -0.094293539959
 DF-MP2-F12/3*C(FIX)                   -0.069083882890     -0.015127859110     -0.084211742000
 DF-MP2-F12/3C(FIX)                    -0.069735535392     -0.015908919938     -0.085644455330

 DF-MP2-F12 correlation energies:
 ================================
 Approx.                                    Singlet             Triplet             Ecorr            Total Energy
 DF-MP2                                -0.223591325913     -0.131942666607     -0.355533992519   -138.154495043866
 DF-MP2-F12/3*C(DX,FIX)                -0.301795037726     -0.148032494752     -0.449827532478   -138.248788583825
 DF-MP2-F12/3*C(FIX)                   -0.292675208803     -0.147070525717     -0.439745734520   -138.238706785866
 DF-MP2-F12/3C(FIX)                    -0.293326861305     -0.147851586544     -0.441178447849   -138.240139499195

 SCS-DF-MP2 energies (F_SING= 1.20000  F_TRIP= 0.62222  F_PARALLEL= 0.33333):
 ============================================================================
 SCS-DF-MP2                            -0.350407250317   -138.149368301664
 SCS-DF-MP2-F12/3*C(DX,FIX)            -0.454263153117   -138.253224204464
 SCS-DF-MP2-F12/3*C(FIX)               -0.442720799898   -138.241681851245
 SCS-DF-MP2-F12/3C(FIX)                -0.443988776304   -138.242949827651

 Symmetry restored.
 Symmetry transformation completed.

 Number of N-1 electron functions:               6
 Number of N-2 electron functions:              21
 Number of singly external CSFs:               229
 Number of doubly external CSFs:             35788
 Total number of CSFs:                       36018

 Length of J-op  integral file:              15.24 MB
 Length of K-op  integral file:              18.55 MB
 Length of 3-ext integral record:             0.00 MB

 Memory could be reduced to 1.16 Mwords without degradation in triples

 Integral transformation finished. Total CPU:   0.03 sec, npass=  1  Memory used:   0.52 MW

 Reference energy:                   -137.79896105

 Adding F12 terms to K(Cij), methodcc=6,  factor= 1.0

 ITER.      SQ.NORM     CORR.ENERGY   TOTAL ENERGY   ENERGY CHANGE        DEN1      VAR(S)    VAR(P)  DIIS     TIME  TIME/IT
   1      1.09232223    -0.36169505  -138.16065610    -0.00605640     0.00563901  0.27D-02  0.22D-02  1  1     2.29     0.05
   2      1.10187696    -0.36239941  -138.16136046    -0.00070435    -0.00914089  0.80D-04  0.55D-03  2  2     2.34     0.05
   3      1.10862821    -0.36329807  -138.16225912    -0.00089866    -0.00250442  0.10D-03  0.11D-03  3  3     2.39     0.05
   4      1.11321072    -0.36356227  -138.16252332    -0.00026420    -0.00142761  0.98D-05  0.36D-04  4  4     2.44     0.06
   5      1.11636964    -0.36366011  -138.16262116    -0.00009784    -0.00049519  0.13D-05  0.81D-05  5  5     2.49     0.06
   6      1.11780535    -0.36366703  -138.16262808    -0.00000692    -0.00009617  0.44D-06  0.13D-05  6  6     2.54     0.06
   7      1.11816750    -0.36367787  -138.16263892    -0.00001084    -0.00002997  0.23D-06  0.18D-06  6  2     2.58     0.06
   8      1.11820672    -0.36368182  -138.16264288    -0.00000395     0.00000789  0.34D-07  0.31D-07  6  1     2.63     0.06
   9      1.11822682    -0.36368312  -138.16264417    -0.00000129    -0.00000336  0.10D-07  0.42D-08  6  3     2.66     0.06
  10      1.11822128    -0.36368408  -138.16264514    -0.00000097     0.00000330  0.11D-08  0.85D-09  6  4     2.70     0.06
  11      1.11821820    -0.36368418  -138.16264523    -0.00000009     0.00000077  0.31D-09  0.11D-09  6  5     2.75     0.06
  12      1.11821666    -0.36368431  -138.16264536    -0.00000013     0.00000061  0.48D-10  0.25D-10  6  6     2.80     0.06
  13      1.11821570    -0.36368431  -138.16264536    -0.00000000     0.00000011  0.13D-10  0.66D-11  6  2     2.85     0.06
  14      1.11821493    -0.36368432  -138.16264537    -0.00000001     0.00000010  0.21D-11  0.26D-11  6  1     2.91     0.06
  15      1.11821434    -0.36368433  -138.16264538    -0.00000000     0.00000005  0.28D-12  0.94D-12  6  3     2.95     0.06
  16      1.11821397    -0.36368433  -138.16264538    -0.00000000     0.00000004  0.41D-13  0.31D-12  6  4     2.99     0.06
  17      1.11821373    -0.36368433  -138.16264538    -0.00000000     0.00000003  0.30D-13  0.58D-13  6  5     3.04     0.06
  18      1.11821363    -0.36368432  -138.16264538     0.00000000     0.00000001  0.82D-14  0.78D-14  6  6     3.09     0.06
  19      1.11821362    -0.36368433  -138.16264538    -0.00000000     0.00000000  0.29D-14  0.16D-14  6  2     3.14     0.06
  20      1.11821361    -0.36368433  -138.16264538     0.00000000    -0.00000000  0.25D-15  0.29D-15  6  3     3.19     0.06
  21      1.11821361    -0.36368433  -138.16264538    -0.00000000     0.00000000  0.28D-16  0.20D-16  6  1     3.24     0.06
  22      1.11821361    -0.36368433  -138.16264538    -0.00000000    -0.00000000  0.78D-17  0.47D-17  6  4     3.29     0.06
  23      1.11821361    -0.36368433  -138.16264538    -0.00000000     0.00000000  0.12D-17  0.73D-18  6  5     3.34     0.06
  24      1.11821361    -0.36368433  -138.16264538    -0.00000000     0.00000000  0.23D-18  0.21D-18  6  6     3.39     0.06
  25      1.11821361    -0.36368433  -138.16264538    -0.00000000    -0.00000000  0.44D-19  0.75D-19  6  2     3.45     0.06
  26      1.11821361    -0.36368433  -138.16264538    -0.00000000    -0.00000000  0.25D-20  0.24D-19  6  3     3.50     0.06
  27      1.11821361    -0.36368433  -138.16264538     0.00000000    -0.00000000  0.46D-21  0.86D-20  6  1     3.54     0.06
  28      1.11821361    -0.36368433  -138.16264538    -0.00000000    -0.00000000  0.33D-21  0.18D-20  6  5     3.59     0.06

 Norm of t1 vector:      0.08212717      S-energy:    -0.00000000      T1 diagnostic:  0.01676414
                                                                       D1 diagnostic:  0.04920610

 Doubles amplitudes (print threshold =  0.500E-01):

         I         J         SYM. A    SYM. B    A         B      T(IJ, AB)

         5         5         2         2         1         1     -0.06389720
         5         5         2         2         1         2      0.05296711
         5         5         2         2         2         1      0.05296711

 Adding energy correction from Wij-K(Fij), methodcc=6  factor= 1.0

  CCSD correlation energy              -0.363684325193
  MP2-F12 correction (uncoupled)       -0.080905906255
  C*T doubles correction               -0.002655852196
  f12b correction                       0.010233694638


 Total CPU time for triples:      0.26 sec


 RESULTS
 =======

  Reference energy                   -137.792401174226
  F12 singles correction               -0.006559877120

 F12 singles corrections added to reference energy

  New reference energy               -137.798961051346

  F12a singlet correction              -0.068365082859
  F12a triplet correction              -0.015196675592
  F12a total correction                -0.083561758451

 F12a corrections for ansatz F12/3C(FIX) added to CCSD energy

  CCSD-F12a singlet pair energy        -0.313372799538
  CCSD-F12a triplet pair energy        -0.133873284105
  CCSD-F12a correlation energy         -0.447246083644

  Triples (T) contribution             -0.012659730077
  Total correlation energy             -0.459905813721

  CCSD-F12a total energy             -138.246207134990
  CCSD[T]-F12a energy                -138.259989031482
  CCSD-T-F12a energy                 -138.258488468062
 !CCSD(T)-F12a total energy          -138.258866865067

 F12b corrections for ansatz F12/3C(FIX) added to CCSD(T)-F12a energy

  CCSD-F12b singlet pair energy        -0.304114647409
  CCSD-F12b triplet pair energy        -0.132897741596
  CCSD-F12b correlation energy         -0.437012389006

  Triples (T) contribution             -0.012659730077
  Total correlation energy             -0.449672119083

  CCSD-F12b total energy             -138.235973440352
  CCSD[T]-F12b energy                -138.249755336845
  CCSD-T-F12b energy                 -138.248254773424
 !CCSD(T)-F12b total energy          -138.248633170429

 Timing summary (sec):

 STEP                 CPU(USER)    SYS     CPU(TOT)    WALL
 Transformation          0.04      0.01      0.05      0.05
 CCSD iterations         1.39      0.24      1.63      1.64
 Triples                 0.26      0.01      0.27      0.28
 MP2-F12                 2.16      0.07      2.23      2.53
 F12b energy             0.02      0.01      0.03      0.03

 Program statistics:

 Available memory in ccsd:              1999999744
 Min. memory needed in ccsd:                136839
 Max. memory used in ccsd:                  163083
 Max. memory used in cckext:                208330 (29 integral passes)



 **********************************************************************************************************************************
 DATASETS  * FILE   NREC   LENGTH (MB)   RECORD NAMES
              1      20       45.77       500      610      700      900      950      970     1000      129      960     1100   
                                          VAR    BASINP    GEOM    SYMINP    ZMAT    AOBASIS   BASIS     P2S    ABASIS      S 
                                         1400     1410     1200     1210     1080     1600     1650     1300     1700     1380   
                                           T        V       H0       H01     AOSYM     SMH    MOLCAS    ERIS     OPER     JKOP   

              2       6        2.90       700     1000      520     2100     7360     7350   
                                         GEOM     BASIS   MCVARS     RHF    F12ABS    EF12   

 PROGRAMS   *        TOTAL   CCSD(T)    HF-SCF       INT
 CPU TIMES  *         5.30      3.90      0.27      1.00
 REAL TIME  *         7.59 SEC
 DISK USED  *        97.74 MB
 **********************************************************************************************************************************
 SETTING EE(1)          =      -138.24863317  AU                              


 Computing numerical gradient using default procedure for command CCSD(T)-F12

 *** Long output written to logfile /home/mdavis/f12eom_optimizer/tests/slurm/molpro_step.log ***


 Running default procedure: HF-SCF000  CCSD(T)-F12


 Generated   3 symmetrical displacements

 Numerical gradient for CCSD(T)-F12

 Total Energy          -138.24863317  Dipole moments:    0.000000    0.000000    0.000000

 Atom          dE/dx               dE/dy               dE/dz                  d2E/dx2             d2E/dy2             d2E/dz2
   1         0.040480061         0.022319372         0.000000000            0.000000000         0.000000000         0.000000000
   2        -0.073269086         0.001684571        -0.000000000            0.000000000         0.000000000         0.000000000
   3         0.032789025        -0.024003943         0.000000000            0.000000000         0.000000000         0.000000000

 Recomputing wavefunction at initial geometry


 **********************************************************************************************************************************
 DATASETS  * FILE   NREC   LENGTH (MB)   RECORD NAMES
              1      21       45.99       500      610      700      900      701      950      970     1000      129      960   
                                          VAR    BASINP    GEOM    SYMINP    GEOM     ZMAT    AOBASIS   BASIS     P2S    ABASIS    
                                         1100     1400     1410     1200     1210     1080     1600     1650     1300     1700   
                                           S        T        V       H0       H01     AOSYM     SMH    MOLCAS    ERIS     OPER   
                                         1380   
                                         JKOP   

              2       8        3.12       700     1000      520     2100     7360     7350      701     5600   
                                         GEOM     BASIS   MCVARS     RHF    F12ABS    EF12     GEOM     GINFO   

 PROGRAMS   *        TOTAL    FORCES    HF-SCF       INT   CCSD(T)    HF-SCF       INT
 CPU TIMES  *        41.69      3.93      0.04     32.42      3.90      0.27      1.00
 REAL TIME  *        51.68 SEC
 DISK USED  *       100.73 MB
 **********************************************************************************************************************************
 EE(1)            =     -138.248633170429 AU
 GRADX(1:3)       = [      0.040480061264   -0.073269085767    0.032789024503] AU
 GRADY(1:3)       = [      0.022319372377    0.001684570544   -0.024003942922] AU
 GRADZ(1:3)       = [      0.000000000000   -0.000000000000    0.000000000000] AU

 CCSD(T)-F12/cc-pVDZ-F12 energy=   -138.248633170429

     CCSD(T)-F12          HF-SCF     CCSD(T)-F12          HF-SCF
   -138.24863317   -137.79240117   -138.24863317   -137.79240117
 **********************************************************************************************************************************
 Molpro calculation terminated
