
 Primary working directories    : /scratch/mdavis/molpro_step_2022-08-17_19_55_48/molpro.3wksEti4CR
 Secondary working directories  : /scratch/mdavis/molpro_step_2022-08-17_19_55_48/molpro.3wksEti4CR
 Wavefunction directory         : /home/mdavis/f12eom_optimizer/tests/slurm/./
 Main file repository           : /scratch/mdavis/molpro_step_2022-08-17_19_55_48/molpro.3wksEti4CR/

 id        : olemiss

 Nodes     nprocs
 node17       1

 Using customized tuning parameters: mindgm=1; mindgv=20; mindgc=4; mindgr=1; noblas=0; minvec=7
 default implementation of scratch files=df  


 Variables initialized (945), CPU time= 0.01 sec
 ***,part of geometry opt run
 memory, 2000.0, m;
 gthresh,energy=1.d-12,zero=1.d-22,oneint=1.d-22,twoint=1.d-22;
 gthresh,optgrad=1.d-8,optstep=1.d-8;
 nocompress;
 bohr;
 geometry={
      3
 Fragment 1
     H  -1.6078845113   1.6794005019   0.0000000000
     C   0.4967180332   1.1351720348   0.0000000000
     F   0.2325192127  -1.4942926867   0.0000000000
      }
 
 set,charge=0
 set,spin=0
 basis=vdz-f12
 hf,maxit=500;wf,charge=0,spin=0;accu,20;
 ccsd(t)-f12,maxit=250;wf,charge=0,spin=0;orbital,IGNORE_ERROR;
 ee(1)=energy(2)
 forces,varsav
 SHOW[f18.12],ee(1)
 SHOW[f18.12],GRADX
 SHOW[f18.12],GRADY
 SHOW[f18.12],GRADZ
 Commands  initialized (802), CPU time= 0.01 sec, 659 directives.
 Default parameters read. Elapsed time= 0.09 sec

 Checking input...
 Passed
1


                                         ***  PROGRAM SYSTEM MOLPRO  ***
                                       Copyright, TTI GmbH Stuttgart, 2015
                                    Version 2020.1 linked Oct  6 2020 12:04:11


 **********************************************************************************************************************************
 LABEL *   part of geometry opt run                                                      
  64 bit serial version                                                                  DATE: 17-Aug-22          TIME: 19:55:48  
 **********************************************************************************************************************************

 SHA1:             8c27446f6450a7499e38f603e13c65f775101d37
 **********************************************************************************************************************************

 Memory per process:      2000 MW
 Total memory per node:   2000 MW

 GA preallocation disabled
 GA check disabled

 Variable memory set to 2000.0 MW


 THRESHOLDS:

 ZERO    =  1.00D-22  ONEINT  =  1.00D-22  TWOINT  =  1.00D-22  PREFAC  =  1.00D-14  XXXXXX  =  1.00D-09  EORDER  =  1.00D-04
 ENERGY  =  1.00D-12  ETEST   =  0.00D+00  EDENS   =  0.00D+00  THRDEDEF=  1.00D-06  GRADIENT=  1.00D-05  STEP    =  1.00D-03
 ORBITAL =  1.00D-05  CIVEC   =  1.00D-05  COEFF   =  1.00D-04  PRINTCI =  5.00D-02  PUNCHCI =  9.90D+01  OPTGRAD =  3.00D-04
 OPTENERG=  1.00D-06  OPTSTEP =  3.00D-04  THRGRAD =  1.00D-10  COMPRESS=  1.00D-11  VARMIN  =  1.00D-07  VARMAX  =  1.00D-03
 THRDOUB =  0.00D+00  THRDIV  =  1.00D-05  THRRED  =  1.00D-07  THRPSP  =  1.00D+00  THRDC   =  1.00D-10  THRCS   =  1.00D-10
 THRNRM  =  1.00D-08  THREQ   =  0.00D+00  THRDE   =  1.00D+00  THRREF  =  1.00D-05  SPARFAC =  1.00D+00  THRDLP  =  1.00D-07
 THRDIA  =  1.00D-10  THRDLS  =  1.00D-07  THRGPS  =  0.00D+00  THRKEX  =  0.00D+00  THRDIS  =  2.00D-01  THRVAR  =  1.00D-10
 THRLOC  =  1.00D-06  THRGAP  =  1.00D-06  THRLOCT = -1.00D+00  THRGAPT = -1.00D+00  THRORB  =  1.00D-06  THRMLTP =  0.00D+00
 THRCPQCI=  1.00D-10  KEXTA   =  0.00D+00  THRCOARS=  0.00D+00  SYMTOL  =  1.00D-06  GRADTOL =  1.00D-06  THROVL  =  1.00D-08
 THRORTH =  1.00D-08  GRID    =  1.00D-06  GRIDMAX =  1.00D-03  DTMAX   =  0.00D+00  THROCCDE=  1.00D-01  THROCCDE=  1.00D-01
 THRPRINT=  2.50D-01


 THRESHOLDS:

 ZERO    =  1.00D-22  ONEINT  =  1.00D-22  TWOINT  =  1.00D-22  PREFAC  =  1.00D-14  XXXXXX  =  1.00D-09  EORDER  =  1.00D-04
 ENERGY  =  1.00D-12  ETEST   =  0.00D+00  EDENS   =  0.00D+00  THRDEDEF=  1.00D-06  GRADIENT=  1.00D-05  STEP    =  1.00D-03
 ORBITAL =  1.00D-05  CIVEC   =  1.00D-05  COEFF   =  1.00D-04  PRINTCI =  5.00D-02  PUNCHCI =  9.90D+01  OPTGRAD =  1.00D-08
 OPTENERG=  1.00D-06  OPTSTEP =  1.00D-08  THRGRAD =  1.00D-10  COMPRESS=  1.00D-11  VARMIN  =  1.00D-07  VARMAX  =  1.00D-03
 THRDOUB =  0.00D+00  THRDIV  =  1.00D-05  THRRED  =  1.00D-07  THRPSP  =  1.00D+00  THRDC   =  1.00D-10  THRCS   =  1.00D-10
 THRNRM  =  1.00D-08  THREQ   =  0.00D+00  THRDE   =  1.00D+00  THRREF  =  1.00D-05  SPARFAC =  1.00D+00  THRDLP  =  1.00D-07
 THRDIA  =  1.00D-10  THRDLS  =  1.00D-07  THRGPS  =  0.00D+00  THRKEX  =  0.00D+00  THRDIS  =  2.00D-01  THRVAR  =  1.00D-10
 THRLOC  =  1.00D-06  THRGAP  =  1.00D-06  THRLOCT = -1.00D+00  THRGAPT = -1.00D+00  THRORB  =  1.00D-06  THRMLTP =  0.00D+00
 THRCPQCI=  1.00D-10  KEXTA   =  0.00D+00  THRCOARS=  0.00D+00  SYMTOL  =  1.00D-06  GRADTOL =  1.00D-06  THROVL  =  1.00D-08
 THRORTH =  1.00D-08  GRID    =  1.00D-06  GRIDMAX =  1.00D-03  DTMAX   =  0.00D+00  THROCCDE=  1.00D-01  THROCCDE=  1.00D-01
 THRPRINT=  2.50D-01


 Input parameters for SORTINT:

 COMPRESS =    0.000000
 C_FINAL  =    1.000000
 DEBUG    =   -1.000000
 C_SORT1  =    0.000000
 C_SEWARD =    0.000000
 THRESH   =    0.000000
 IO       =  molpro                                                                                                                          
 SPRI     =    0.000000
 ZUNIT=BOHR


 Geometry recognized as XYZ

 SETTING CHARGE         =     0.00000000D+00                                  
 SETTING SPIN           =     0.00000000D+00                                  
 SETTING BASIS          =    VDZ-F12


 Recomputing integrals since basis changed


 Using spherical harmonics

 Library entry H      S cc-pVDZ-F12          selected for orbital group  1
 Library entry H      P cc-pVDZ-F12          selected for orbital group  1
 Library entry C      S cc-pVDZ-F12          selected for orbital group  2
 Library entry C      P cc-pVDZ-F12          selected for orbital group  2
 Library entry C      D cc-pVDZ-F12          selected for orbital group  2
 Library entry F      S cc-pVDZ-F12          selected for orbital group  3
 Library entry F      P cc-pVDZ-F12          selected for orbital group  3
 Library entry F      D cc-pVDZ-F12          selected for orbital group  3


 PROGRAM * SEWARD (Integral evaluation for generally contracted gaussian basis sets)     Author: Roland Lindh, 1990

 Geometry written to block  1 of record 700


 Point group  Cs  



 ATOMIC COORDINATES

 NR  ATOM    CHARGE       X              Y              Z

   1  H       1.00   -1.607884511    1.679400502    0.000000000
   2  C       6.00    0.496718033    1.135172035    0.000000000
   3  F       9.00    0.232519213   -1.494292687    0.000000000

 Bond lengths in Bohr (Angstrom)

 1-2  2.173829914  2-3  2.642704247
     ( 1.150341251)     ( 1.398458863)

 Bond angles

  1-2-3   98.76089039

 NUCLEAR CHARGE:                   16
 NUMBER OF PRIMITIVE AOS:          93
 NUMBER OF SYMMETRY AOS:           89
 NUMBER OF CONTRACTIONS:           69   (   49A'  +   20A"  )
 NUMBER OF INNER CORE ORBITALS:     0   (    0A'  +    0A"  )
 NUMBER OF OUTER CORE ORBITALS:     2   (    2A'  +    0A"  )
 NUMBER OF VALENCE ORBITALS:        9   (    7A'  +    2A"  )


 NUCLEAR REPULSION ENERGY   25.64690018

 Eigenvalues of metric

         1 0.213E-02 0.323E-02 0.328E-02 0.407E-02 0.440E-02 0.468E-02 0.477E-02 0.990E-02
         2 0.330E-02 0.469E-02 0.884E-01 0.986E-01 0.144E+00 0.192E+00 0.258E+00 0.394E+00


 Contracted 2-electron integrals neglected if value below      1.0D-22

        1426049. INTEGRALS WRITTEN OUT IN     349 BLOCKS ON RECORD 1290 OF FILE 1


 NUMBER OF SORTED TWO-ELECTRON INTEGRALS:    1544830.     BUFFER LENGTH:  32768
 NUMBER OF SEGMENTS:   1  SEGMENT LENGTH:    1544830      RECORD LENGTH: 524288

 Memory used in sort:       2.10 MW

 SORT1 READ     1426049. AND WROTE     1455925. INTEGRALS IN      5 RECORDS. CPU TIME:     0.03 SEC, REAL TIME:     0.04 SEC
 SORT2 READ     1455925. AND WROTE     1544830. INTEGRALS IN      1 RECORDS. CPU TIME:     0.05 SEC, REAL TIME:     0.07 SEC

 FILE SIZES:   FILE 1:    53.0 MBYTE,  FILE 4:    21.0 MBYTE,   TOTAL:     74.0 MBYTE

 OPERATOR DM      FOR CENTER  0  COORDINATES:    0.000000    0.000000    0.000000


 **********************************************************************************************************************************
 DATASETS  * FILE   NREC   LENGTH (MB)   RECORD NAMES
              1      19       42.18       500      610      700      900      950      970     1000      129      960     1100   
                                          VAR    BASINP    GEOM    SYMINP    ZMAT    AOBASIS   BASIS     P2S    ABASIS      S 
                                         1400     1410     1200     1210     1080     1600     1650     1300     1700   
                                           T        V       H0       H01     AOSYM     SMH    MOLCAS    ERIS     OPER   

 PROGRAMS   *        TOTAL       INT
 CPU TIMES  *         1.05      0.92
 REAL TIME  *         2.59 SEC
 DISK USED  *        74.32 MB
 **********************************************************************************************************************************


 PROGRAM * RHF-SCF (CLOSED SHELL)       Authors: W. Meyer, H.-J. Werner


 NUMBER OF ELECTRONS:       8+    8-
 CONVERGENCE THRESHOLDS:    1.00E-10 (Density)    1.00E-13 (Energy)
 MAX. NUMBER OF ITERATIONS:      500
 INTERPOLATION TYPE:            DIIS
 INTERPOLATION STEPS:              2 (START)      1 (STEP)
 LEVEL SHIFTS:                  0.00 (CLOSED)  0.00 (OPEN) 



 Orbital guess generated from atomic densities. Full valence occupancy:    9   2

 Molecular orbital dump at record        2100.2

 Initial occupancy:   7   1

 ITERATION    DDIFF          GRAD             ENERGY        2-EL.EN.            DIPOLE MOMENTS         DIIS   ORB.
    1      0.000D+00      0.000D+00      -137.76262521    155.040492   -0.63411    0.38137    0.00000    0    start
    2      0.000D+00      0.115D-01      -137.79255738    155.183380   -0.64782    0.14059    0.00000    1    diag
    3      0.172D-01      0.591D-02      -137.79944631    156.023945   -0.60234    0.32249    0.00000    2    diag
    4      0.564D-02      0.150D-02      -137.79993687    155.740883   -0.59594    0.31487    0.00000    3    diag
    5      0.127D-02      0.299D-03      -137.80000561    155.790594   -0.59469    0.32459    0.00000    4    diag
    6      0.484D-03      0.863D-04      -137.80001374    155.792678   -0.59383    0.32653    0.00000    5    diag
    7      0.172D-03      0.303D-04      -137.80001473    155.792763   -0.59390    0.32626    0.00000    6    diag
    8      0.761D-04      0.661D-05      -137.80001477    155.792575   -0.59390    0.32598    0.00000    7    diag
    9      0.169D-04      0.141D-05      -137.80001477    155.792580   -0.59392    0.32591    0.00000    8    diag
   10      0.317D-05      0.351D-06      -137.80001477    155.792569   -0.59392    0.32589    0.00000    9    orth
   11      0.959D-06      0.834D-07      -137.80001477    155.792567   -0.59392    0.32588    0.00000    9    diag
   12      0.227D-06      0.181D-07      -137.80001477    155.792566   -0.59392    0.32588    0.00000    9    diag
   13      0.434D-07      0.485D-08      -137.80001477    155.792567   -0.59392    0.32588    0.00000    9    diag
   14      0.122D-07      0.150D-08      -137.80001477    155.792566   -0.59392    0.32588    0.00000    9    diag
   15      0.272D-08      0.256D-09      -137.80001477    155.792566   -0.59392    0.32588    0.00000    9    diag
   16      0.397D-09      0.644D-10      -137.80001477    155.792566   -0.59392    0.32588    0.00000    9    diag
   17      0.131D-09      0.150D-10      -137.80001477    155.792566   -0.59392    0.32588    0.00000    9    diag
   18      0.366D-10      0.279D-11      -137.80001477    155.792566   -0.59392    0.32588    0.00000    0    orth

 Final occupancy:   7   1

 !RHF STATE  1.1 Energy              -137.800014771482
 Nuclear energy                        25.64690018
 One-electron energy                 -241.34319819
 Two-electron energy                   77.89628323
 Virial quotient                       -1.00213984
 !RHF STATE  1.1 Dipole moment         -0.59391855     0.32588280     0.00000000
 Dipole moment /Debye                  -1.50949152     0.82825720     0.00000000

 Orbital energies:

         1.1          2.1          3.1          4.1          5.1          6.1          7.1          8.1          9.1
    -26.339157   -11.393890    -1.634053    -0.912036    -0.729619    -0.650936    -0.432231     0.070631     0.081825

         1.2          2.2          3.2
     -0.683393     0.032545     0.117793


 HOMO      7.1    -0.432231 =     -11.7616eV
 LUMO      2.2     0.032545 =       0.8856eV
 LUMO-HOMO         0.464776 =      12.6472eV


 **********************************************************************************************************************************
 DATASETS  * FILE   NREC   LENGTH (MB)   RECORD NAMES
              1      19       42.18       500      610      700      900      950      970     1000      129      960     1100   
                                          VAR    BASINP    GEOM    SYMINP    ZMAT    AOBASIS   BASIS     P2S    ABASIS      S 
                                         1400     1410     1200     1210     1080     1600     1650     1300     1700   
                                           T        V       H0       H01     AOSYM     SMH    MOLCAS    ERIS     OPER   

              2       4        2.84       700     1000      520     2100   
                                         GEOM     BASIS   MCVARS     RHF  

 PROGRAMS   *        TOTAL    HF-SCF       INT
 CPU TIMES  *         1.32      0.27      0.92
 REAL TIME  *         2.92 SEC
 DISK USED  *        74.32 MB
 **********************************************************************************************************************************


 PROGRAM * CCSD (Closed-shell coupled cluster)     Authors: C. Hampel, H.-J. Werner, 1991, M. Deegan, P.J. Knowles, 1992

                                  CCSD-F12 implementation by  H.-J. Werner, 2007

                   Density fitting integral evaluation by F.R. Manby, 2003,2007, G. Knizia, 2010


 Basis set AUG-CC-PVDZ/JKFIT generated.  Number of basis functions:   204 
 Basis set CC-PVDZ-F12/OPTRI generated.  Number of basis functions:   154 
 Basis set AUG-CC-PVDZ/MP2FIT generated. Number of basis functions:   167 

 Convergence thresholds:  THRVAR = 1.00D-16  THRDEN = 1.00D-12

 CCSD(T)     terms to be evaluated (factor= 1.000)


 Number of core orbitals:           2 (   2   0 )
 Number of closed-shell orbitals:   6 (   5   1 )
 Number of external orbitals:      61 (  42  19 )

 Molecular orbitals read from record     2100.2  Type=RHF/CANONICAL (state 1.1)

 MP2-F12 correlation treatment (H.-J. Werner, 2006)
 ==================================================

 Using MP2-F12 with ansatz 3C(FIX)

 Using projected zeroth-order Hamiltonian (+Z)

 FOCKRIB=T FOCKRIC=T FOCKRIP=T CABSP=T CABSA=T CABSK=T CABSF=T GBC=F EBC=F DMAT=T NOFIK=T NOPAO=1 SOLVE=-1  USEPAO=0
 EXCH_A= T EXCH_B= F EXCH_C= F EXCH_P= F

 Geminal basis:    OPTFULL  GEM_TYPE=SLATER  BETA=1.0  NGEM=6

 Optimizing Gaussian exponents for each gem_beta

 Geminal optimization for beta= 1.0000
 Weight function:   m=0, omega= 1.4646

 Augmented Hessian optimization of geminal fit. Trust ratio= 0.40000
 Convergence reached after   2 iterations. Final gradient= 8.66D-16, Step= 4.23D-06, Delta= 1.28D-09

 Alpha:                 0.19532     0.81920     2.85917     9.50073    35.69989   197.79328
 Coeff:                 0.27070     0.30552     0.18297     0.10986     0.06810     0.04224


 Symmetry turned off. Reference energy:       -137.800014771482

 All pairs explicitly correlated. Number of r12-pairs:           21

 Excluding core orbitals from MO domains

 AO(A)-basis ORBITAL           loaded. Number of functions:      69
 RI(R)-basis CC-PVDZ-F12/OPTRI loaded. Number of functions:     154
 DF-basis AUG-CC-PVDZ/JKFIT    loaded. Number of functions:     204

 Screening thresholds:   THRAO=  1.00D-10  THRMO=  1.00D-10  THRPROD=  1.00D-10
                         THRSW=  1.00D-07  THROV=  1.00D-12  THRAOF12= 1.00D-08

 CPU time for Fock operators                      0.91 sec

 Construction of ABS:
 Smallest eigenvalue of S          4.00E-03  (threshold= 1.00E-08)
 Ratio eigmin/eigmax               8.54E-04  (threshold= 1.00E-09)
 Smallest eigenvalue of S kept     4.00E-03  (threshold= 4.00E-03, 0 functions deleted, 154 kept)

 Construction of CABS:
 Smallest eigenvalue of S          1.13E-05  (threshold= 1.00E-08)
 Ratio eigmin/eigmax               1.13E-05  (threshold= 1.00E-09)
 Smallest eigenvalue of S kept     1.13E-05  (threshold= 1.13E-05, 0 functions deleted, 154 kept)

 CPU time for CABS singles                        0.01 sec

 CABS-singles contribution of  -0.00569154 patched into reference energy.
 New reference energy        -137.80570631

 AO(A)-basis ORBITAL           loaded. Number of functions:      69
 RI(R)-basis CC-PVDZ-F12/OPTRI loaded. Number of functions:     154
 DF-basis AUG-CC-PVDZ/MP2FIT   loaded. Number of functions:     167

 Screening thresholds:   THRAO=  1.00D-10  THRMO=  1.00D-10  THRPROD=  1.00D-10
                         THRSW=  1.00D-07  THROV=  1.00D-12  THRAOF12= 1.00D-08

 CPU time for 3-index integral evaluation         0.35 sec
 CPU time for first  half transformation          0.05 sec ( 3039.3 MFLOP/sec)
 CPU time for second half transformation          0.01 sec (  774.3 MFLOP/sec)
 CPU time for fitting                             0.01 sec ( 8266.3 MFLOP/sec)
 CPU time for tilde quantities                    0.01 sec (10307.8 MFLOP/sec)
 CPU time for assembly                            0.04 sec (19371.9 MFLOP/sec)
 CPU time for tranop_f12                          0.05 sec (20899.9 MFLOP/sec)
 CPU time for f12 integrals (total)               1.21 sec, Elapsed time:      1.29 sec
 CPU time for f12 matrices (total)                0.01 sec, Elapsed time:      0.02 sec

 Diagonal F12 approximation with fixed coefficients:  TSING= 0.500,  TTRIP= 0.250 (scaled by -1/beta)

 DF-MP2-F12 energy corrections:
 ==============================
 Approx.                                    Singlet             Triplet             Total
 DF-MP2-F12/3*C(DX,FIX)                -0.077560005299     -0.015941633132     -0.093501638431
 DF-MP2-F12/3*C(FIX)                   -0.068672603943     -0.015060922965     -0.083733526908
 DF-MP2-F12/3C(FIX)                    -0.069325983292     -0.015811984894     -0.085137968186

 DF-MP2-F12 correlation energies:
 ================================
 Approx.                                    Singlet             Triplet             Ecorr            Total Energy
 DF-MP2                                -0.227156579468     -0.132916574699     -0.360073154166   -138.165779467776
 DF-MP2-F12/3*C(DX,FIX)                -0.304716584767     -0.148858207831     -0.453574792598   -138.259281106207
 DF-MP2-F12/3*C(FIX)                   -0.295829183411     -0.147977497664     -0.443806681075   -138.249512994684
 DF-MP2-F12/3C(FIX)                    -0.296482562759     -0.148728559593     -0.445211122352   -138.250917435961

 SCS-DF-MP2 energies (F_SING= 1.20000  F_TRIP= 0.62222  F_PARALLEL= 0.33333):
 ============================================================================
 SCS-DF-MP2                            -0.355291541840   -138.160997855450
 SCS-DF-MP2-F12/3*C(DX,FIX)            -0.458282786593   -138.263989100202
 SCS-DF-MP2-F12/3*C(FIX)               -0.447069907528   -138.252776221138
 SCS-DF-MP2-F12/3C(FIX)                -0.448321290169   -138.254027603778

 Symmetry restored.
 Symmetry transformation completed.

 Number of N-1 electron functions:               6
 Number of N-2 electron functions:              21
 Number of singly external CSFs:               229
 Number of doubly external CSFs:             35788
 Total number of CSFs:                       36018

 Length of J-op  integral file:              15.24 MB
 Length of K-op  integral file:              18.55 MB
 Length of 3-ext integral record:             0.00 MB

 Memory could be reduced to 1.16 Mwords without degradation in triples

 Integral transformation finished. Total CPU:   0.03 sec, npass=  1  Memory used:   0.52 MW

 Reference energy:                   -137.80570631

 Adding F12 terms to K(Cij), methodcc=6,  factor= 1.0

 ITER.      SQ.NORM     CORR.ENERGY   TOTAL ENERGY   ENERGY CHANGE        DEN1      VAR(S)    VAR(P)  DIIS     TIME  TIME/IT
   1      1.09689791    -0.36637008  -138.17207639    -0.00619588     0.00701116  0.34D-02  0.26D-02  1  1     2.27     0.05
   2      1.10751420    -0.36698883  -138.17269514    -0.00061875    -0.01013859  0.98D-04  0.62D-03  2  2     2.32     0.05
   3      1.11504416    -0.36795059  -138.17365690    -0.00096175    -0.00278138  0.14D-03  0.90D-04  3  3     2.38     0.05
   4      1.11956834    -0.36812632  -138.17383263    -0.00017574    -0.00151646  0.15D-04  0.25D-04  4  4     2.42     0.05
   5      1.12228804    -0.36817968  -138.17388600    -0.00005336    -0.00049098  0.23D-05  0.40D-05  5  5     2.47     0.05
   6      1.12325838    -0.36816902  -138.17387533     0.00001066    -0.00006403  0.11D-06  0.61D-06  6  6     2.52     0.05
   7      1.12345574    -0.36816893  -138.17387525     0.00000008    -0.00002448  0.36D-07  0.12D-06  6  4     2.57     0.05
   8      1.12347195    -0.36817008  -138.17387639    -0.00000114     0.00000678  0.86D-08  0.18D-07  6  2     2.62     0.05
   9      1.12347123    -0.36817009  -138.17387640    -0.00000001     0.00000029  0.34D-08  0.24D-08  6  1     2.67     0.05
  10      1.12346838    -0.36817062  -138.17387693    -0.00000053     0.00000078  0.44D-09  0.54D-09  6  3     2.72     0.05
  11      1.12346640    -0.36817060  -138.17387691     0.00000002    -0.00000024  0.22D-09  0.84D-10  6  6     2.77     0.05
  12      1.12346607    -0.36817076  -138.17387708    -0.00000017     0.00000023  0.23D-10  0.15D-10  6  5     2.82     0.05
  13      1.12346558    -0.36817080  -138.17387711    -0.00000004     0.00000007  0.84D-11  0.29D-11  6  4     2.87     0.05
  14      1.12346507    -0.36817084  -138.17387715    -0.00000004     0.00000010  0.15D-11  0.96D-12  6  2     2.92     0.05
  15      1.12346468    -0.36817085  -138.17387717    -0.00000002     0.00000005  0.21D-12  0.36D-12  6  1     2.97     0.05
  16      1.12346445    -0.36817086  -138.17387717    -0.00000000     0.00000002  0.85D-13  0.67D-13  6  6     3.02     0.05
  17      1.12346431    -0.36817086  -138.17387718    -0.00000001     0.00000002  0.35D-14  0.10D-13  6  3     3.07     0.05
  18      1.12346429    -0.36817086  -138.17387718     0.00000000     0.00000000  0.11D-14  0.19D-14  6  4     3.12     0.05
  19      1.12346428    -0.36817086  -138.17387718    -0.00000000     0.00000000  0.86D-16  0.17D-15  6  5     3.17     0.05
  20      1.12346427    -0.36817086  -138.17387718     0.00000000     0.00000000  0.22D-16  0.33D-16  6  2     3.22     0.05
  21      1.12346427    -0.36817086  -138.17387718    -0.00000000     0.00000000  0.47D-17  0.37D-17  6  1     3.25     0.05
  22      1.12346427    -0.36817086  -138.17387718    -0.00000000     0.00000000  0.10D-17  0.63D-18  6  6     3.30     0.05
  23      1.12346427    -0.36817086  -138.17387718     0.00000000     0.00000000  0.22D-18  0.17D-18  6  3     3.35     0.05
  24      1.12346427    -0.36817086  -138.17387718     0.00000000    -0.00000000  0.52D-19  0.38D-19  6  5     3.40     0.05
  25      1.12346427    -0.36817086  -138.17387718     0.00000000    -0.00000000  0.91D-21  0.37D-20  6  4     3.45     0.05
  26      1.12346427    -0.36817086  -138.17387718    -0.00000000    -0.00000000  0.20D-21  0.64D-21  6  2     3.50     0.05
  27      1.12346427    -0.36817086  -138.17387718    -0.00000000    -0.00000000  0.17D-22  0.41D-22  6  3     3.55     0.05

 Norm of t1 vector:      0.09289102      S-energy:    -0.00000000      T1 diagnostic:  0.01896130
                                                                       D1 diagnostic:  0.05683828

 Doubles amplitudes (print threshold =  0.500E-01):

         I         J         SYM. A    SYM. B    A         B      T(IJ, AB)

         5         5         2         2         1         1     -0.05989795

 Adding energy correction from Wij-K(Fij), methodcc=6  factor= 1.0

  CCSD correlation energy              -0.368170862871
  MP2-F12 correction (uncoupled)       -0.080518525137
  C*T doubles correction               -0.002585228465
  f12b correction                       0.010339098098


 Total CPU time for triples:      0.26 sec


 RESULTS
 =======

  Reference energy                   -137.800014771482
  F12 singles correction               -0.005691542127

 F12 singles corrections added to reference energy

  New reference energy               -137.805706313609

  F12a singlet correction              -0.067973081826
  F12a triplet correction              -0.015130671776
  F12a total correction                -0.083103753602

 F12a corrections for ansatz F12/3C(FIX) added to CCSD energy

  CCSD-F12a singlet pair energy        -0.317477681583
  CCSD-F12a triplet pair energy        -0.133796934890
  CCSD-F12a correlation energy         -0.451274616473

  Triples (T) contribution             -0.013429211788
  Total correlation energy             -0.464703828261

  CCSD-F12a total energy             -138.256980930082
  CCSD[T]-F12a energy                -138.271850172585
  CCSD-T-F12a energy                 -138.269920856767
 !CCSD(T)-F12a total energy          -138.270410141870

 F12b corrections for ansatz F12/3C(FIX) added to CCSD(T)-F12a energy

  CCSD-F12b singlet pair energy        -0.308113086042
  CCSD-F12b triplet pair energy        -0.132822432332
  CCSD-F12b correlation energy         -0.440935518375

  Triples (T) contribution             -0.013429211788
  Total correlation energy             -0.454364730163

  CCSD-F12b total energy             -138.246641831984
  CCSD[T]-F12b energy                -138.261511074487
  CCSD-T-F12b energy                 -138.259581758668
 !CCSD(T)-F12b total energy          -138.260071043772

 Timing summary (sec):

 STEP                 CPU(USER)    SYS     CPU(TOT)    WALL
 Transformation          0.03      0.02      0.05      0.04
 CCSD iterations         1.35      0.13      1.48      1.54
 Triples                 0.26      0.02      0.28      0.27
 MP2-F12                 2.17      0.09      2.26      2.53
 F12b energy             0.03      0.00      0.03      0.03

 Program statistics:

 Available memory in ccsd:              1999999744
 Min. memory needed in ccsd:                136839
 Max. memory used in ccsd:                  163083
 Max. memory used in cckext:                208330 (28 integral passes)



 **********************************************************************************************************************************
 DATASETS  * FILE   NREC   LENGTH (MB)   RECORD NAMES
              1      20       45.77       500      610      700      900      950      970     1000      129      960     1100   
                                          VAR    BASINP    GEOM    SYMINP    ZMAT    AOBASIS   BASIS     P2S    ABASIS      S 
                                         1400     1410     1200     1210     1080     1600     1650     1300     1700     1380   
                                           T        V       H0       H01     AOSYM     SMH    MOLCAS    ERIS     OPER     JKOP   

              2       6        2.90       700     1000      520     2100     7360     7350   
                                         GEOM     BASIS   MCVARS     RHF    F12ABS    EF12   

 PROGRAMS   *        TOTAL   CCSD(T)    HF-SCF       INT
 CPU TIMES  *         5.19      3.86      0.27      0.92
 REAL TIME  *         7.37 SEC
 DISK USED  *        97.74 MB
 **********************************************************************************************************************************
 SETTING EE(1)          =      -138.26007104  AU                              


 Computing numerical gradient using default procedure for command CCSD(T)-F12

 *** Long output written to logfile /home/mdavis/f12eom_optimizer/tests/slurm/molpro_step.log ***


 Running default procedure: HF-SCF000  CCSD(T)-F12


 Generated   3 symmetrical displacements

 Numerical gradient for CCSD(T)-F12

 Total Energy          -138.26007104  Dipole moments:    0.000000    0.000000    0.000000

 Atom          dE/dx               dE/dy               dE/dz                  d2E/dx2             d2E/dy2             d2E/dz2
   1        -0.016616081         0.002246410         0.000000000            0.000000000         0.000000000         0.000000000
   2         0.023392499         0.048863609         0.000000000            0.000000000         0.000000000         0.000000000
   3        -0.006776417        -0.051110020         0.000000000            0.000000000         0.000000000         0.000000000

 Recomputing wavefunction at initial geometry


 **********************************************************************************************************************************
 DATASETS  * FILE   NREC   LENGTH (MB)   RECORD NAMES
              1      21       45.99       500      610      700      900      701      950      970     1000      129      960   
                                          VAR    BASINP    GEOM    SYMINP    GEOM     ZMAT    AOBASIS   BASIS     P2S    ABASIS    
                                         1100     1400     1410     1200     1210     1080     1600     1650     1300     1700   
                                           S        T        V       H0       H01     AOSYM     SMH    MOLCAS    ERIS     OPER   
                                         1380   
                                         JKOP   

              2       8        3.12       700     1000      520     2100     7360     7350      701     5600   
                                         GEOM     BASIS   MCVARS     RHF    F12ABS    EF12     GEOM     GINFO   

 PROGRAMS   *        TOTAL    FORCES    HF-SCF       INT   CCSD(T)    HF-SCF       INT
 CPU TIMES  *        41.44      3.94      0.06     32.25      3.86      0.27      0.92
 REAL TIME  *        51.51 SEC
 DISK USED  *       100.73 MB
 **********************************************************************************************************************************
 EE(1)            =     -138.260071043772 AU
 GRADX(1:3)       = [     -0.016616081417    0.023392498825   -0.006776417408] AU
 GRADY(1:3)       = [      0.002246410348    0.048863609387   -0.051110019735] AU
 GRADZ(1:3)       = [      0.000000000000    0.000000000000    0.000000000000] AU

 CCSD(T)-F12/cc-pVDZ-F12 energy=   -138.260071043772

     CCSD(T)-F12          HF-SCF     CCSD(T)-F12          HF-SCF
   -138.26007104   -137.80001477   -138.26007104   -137.80001477
 **********************************************************************************************************************************
 Molpro calculation terminated
