
 Primary working directories    : /scratch/mdavis/molpro_step_2022-08-17_19_40_27/molpro.5iyu2oxYai
 Secondary working directories  : /scratch/mdavis/molpro_step_2022-08-17_19_40_27/molpro.5iyu2oxYai
 Wavefunction directory         : /home/mdavis/f12eom_optimizer/tests/slurm/./
 Main file repository           : /scratch/mdavis/molpro_step_2022-08-17_19_40_27/molpro.5iyu2oxYai/

 id        : olemiss

 Nodes     nprocs
 node17       1

 Using customized tuning parameters: mindgm=1; mindgv=20; mindgc=4; mindgr=1; noblas=0; minvec=7
 default implementation of scratch files=df  


 Variables initialized (945), CPU time= 0.00 sec
 ***,part of geometry opt run
 memory, 2000.0, m;
 gthresh,energy=1.d-12,zero=1.d-22,oneint=1.d-22,twoint=1.d-22;
 gthresh,optgrad=1.d-8,optstep=1.d-8;
 nocompress;
 bohr;
 geometry={
      3
 Fragment 1
     H  -1.6075916466   1.6797922637   0.0000000000
     C   0.4960234995   1.1345863793   0.0000000000
     F   0.2329208817  -1.4940987930   0.0000000000
      }
 
 set,charge=0
 set,spin=0
 basis=vdz-f12
 hf,maxit=500;wf,charge=0,spin=0;accu,20;
 ccsd(t)-f12,maxit=250;wf,charge=0,spin=0;orbital,IGNORE_ERROR;
 ee(1)=energy(2)
 forces,varsav
 SHOW[f18.12],ee(1)
 SHOW[f18.12],GRADX
 SHOW[f18.12],GRADY
 SHOW[f18.12],GRADZ
 Commands  initialized (802), CPU time= 0.01 sec, 659 directives.
 Default parameters read. Elapsed time= 0.20 sec

 Checking input...
 Passed
1


                                         ***  PROGRAM SYSTEM MOLPRO  ***
                                       Copyright, TTI GmbH Stuttgart, 2015
                                    Version 2020.1 linked Oct  6 2020 12:04:11


 **********************************************************************************************************************************
 LABEL *   part of geometry opt run                                                      
  64 bit serial version                                                                  DATE: 17-Aug-22          TIME: 19:40:28  
 **********************************************************************************************************************************

 SHA1:             8c27446f6450a7499e38f603e13c65f775101d37
 **********************************************************************************************************************************

 Memory per process:      2000 MW
 Total memory per node:   2000 MW

 GA preallocation disabled
 GA check disabled

 Variable memory set to 2000.0 MW


 THRESHOLDS:

 ZERO    =  1.00D-22  ONEINT  =  1.00D-22  TWOINT  =  1.00D-22  PREFAC  =  1.00D-14  XXXXXX  =  1.00D-09  EORDER  =  1.00D-04
 ENERGY  =  1.00D-12  ETEST   =  0.00D+00  EDENS   =  0.00D+00  THRDEDEF=  1.00D-06  GRADIENT=  1.00D-05  STEP    =  1.00D-03
 ORBITAL =  1.00D-05  CIVEC   =  1.00D-05  COEFF   =  1.00D-04  PRINTCI =  5.00D-02  PUNCHCI =  9.90D+01  OPTGRAD =  3.00D-04
 OPTENERG=  1.00D-06  OPTSTEP =  3.00D-04  THRGRAD =  1.00D-10  COMPRESS=  1.00D-11  VARMIN  =  1.00D-07  VARMAX  =  1.00D-03
 THRDOUB =  0.00D+00  THRDIV  =  1.00D-05  THRRED  =  1.00D-07  THRPSP  =  1.00D+00  THRDC   =  1.00D-10  THRCS   =  1.00D-10
 THRNRM  =  1.00D-08  THREQ   =  0.00D+00  THRDE   =  1.00D+00  THRREF  =  1.00D-05  SPARFAC =  1.00D+00  THRDLP  =  1.00D-07
 THRDIA  =  1.00D-10  THRDLS  =  1.00D-07  THRGPS  =  0.00D+00  THRKEX  =  0.00D+00  THRDIS  =  2.00D-01  THRVAR  =  1.00D-10
 THRLOC  =  1.00D-06  THRGAP  =  1.00D-06  THRLOCT = -1.00D+00  THRGAPT = -1.00D+00  THRORB  =  1.00D-06  THRMLTP =  0.00D+00
 THRCPQCI=  1.00D-10  KEXTA   =  0.00D+00  THRCOARS=  0.00D+00  SYMTOL  =  1.00D-06  GRADTOL =  1.00D-06  THROVL  =  1.00D-08
 THRORTH =  1.00D-08  GRID    =  1.00D-06  GRIDMAX =  1.00D-03  DTMAX   =  0.00D+00  THROCCDE=  1.00D-01  THROCCDE=  1.00D-01
 THRPRINT=  2.50D-01


 THRESHOLDS:

 ZERO    =  1.00D-22  ONEINT  =  1.00D-22  TWOINT  =  1.00D-22  PREFAC  =  1.00D-14  XXXXXX  =  1.00D-09  EORDER  =  1.00D-04
 ENERGY  =  1.00D-12  ETEST   =  0.00D+00  EDENS   =  0.00D+00  THRDEDEF=  1.00D-06  GRADIENT=  1.00D-05  STEP    =  1.00D-03
 ORBITAL =  1.00D-05  CIVEC   =  1.00D-05  COEFF   =  1.00D-04  PRINTCI =  5.00D-02  PUNCHCI =  9.90D+01  OPTGRAD =  1.00D-08
 OPTENERG=  1.00D-06  OPTSTEP =  1.00D-08  THRGRAD =  1.00D-10  COMPRESS=  1.00D-11  VARMIN  =  1.00D-07  VARMAX  =  1.00D-03
 THRDOUB =  0.00D+00  THRDIV  =  1.00D-05  THRRED  =  1.00D-07  THRPSP  =  1.00D+00  THRDC   =  1.00D-10  THRCS   =  1.00D-10
 THRNRM  =  1.00D-08  THREQ   =  0.00D+00  THRDE   =  1.00D+00  THRREF  =  1.00D-05  SPARFAC =  1.00D+00  THRDLP  =  1.00D-07
 THRDIA  =  1.00D-10  THRDLS  =  1.00D-07  THRGPS  =  0.00D+00  THRKEX  =  0.00D+00  THRDIS  =  2.00D-01  THRVAR  =  1.00D-10
 THRLOC  =  1.00D-06  THRGAP  =  1.00D-06  THRLOCT = -1.00D+00  THRGAPT = -1.00D+00  THRORB  =  1.00D-06  THRMLTP =  0.00D+00
 THRCPQCI=  1.00D-10  KEXTA   =  0.00D+00  THRCOARS=  0.00D+00  SYMTOL  =  1.00D-06  GRADTOL =  1.00D-06  THROVL  =  1.00D-08
 THRORTH =  1.00D-08  GRID    =  1.00D-06  GRIDMAX =  1.00D-03  DTMAX   =  0.00D+00  THROCCDE=  1.00D-01  THROCCDE=  1.00D-01
 THRPRINT=  2.50D-01


 Input parameters for SORTINT:

 COMPRESS =    0.000000
 C_FINAL  =    1.000000
 DEBUG    =   -1.000000
 C_SORT1  =    0.000000
 C_SEWARD =    0.000000
 THRESH   =    0.000000
 IO       =  molpro                                                                                                                          
 SPRI     =    0.000000
 ZUNIT=BOHR


 Geometry recognized as XYZ

 SETTING CHARGE         =     0.00000000D+00                                  
 SETTING SPIN           =     0.00000000D+00                                  
 SETTING BASIS          =    VDZ-F12


 Recomputing integrals since basis changed


 Using spherical harmonics

 Library entry H      S cc-pVDZ-F12          selected for orbital group  1
 Library entry H      P cc-pVDZ-F12          selected for orbital group  1
 Library entry C      S cc-pVDZ-F12          selected for orbital group  2
 Library entry C      P cc-pVDZ-F12          selected for orbital group  2
 Library entry C      D cc-pVDZ-F12          selected for orbital group  2
 Library entry F      S cc-pVDZ-F12          selected for orbital group  3
 Library entry F      P cc-pVDZ-F12          selected for orbital group  3
 Library entry F      D cc-pVDZ-F12          selected for orbital group  3


 PROGRAM * SEWARD (Integral evaluation for generally contracted gaussian basis sets)     Author: Roland Lindh, 1990

 Geometry written to block  1 of record 700


 Point group  Cs  



 ATOMIC COORDINATES

 NR  ATOM    CHARGE       X              Y              Z

   1  H       1.00   -1.607591647    1.679792264    0.000000000
   2  C       6.00    0.496023500    1.134586379    0.000000000
   3  F       9.00    0.232920882   -1.494098793    0.000000000

 Bond lengths in Bohr (Angstrom)

 1-2  2.173118989  2-3  2.641819207
     ( 1.149965045)     ( 1.397990520)

 Bond angles

  1-2-3   98.81432270

 NUCLEAR CHARGE:                   16
 NUMBER OF PRIMITIVE AOS:          93
 NUMBER OF SYMMETRY AOS:           89
 NUMBER OF CONTRACTIONS:           69   (   49A'  +   20A"  )
 NUMBER OF INNER CORE ORBITALS:     0   (    0A'  +    0A"  )
 NUMBER OF OUTER CORE ORBITALS:     2   (    2A'  +    0A"  )
 NUMBER OF VALENCE ORBITALS:        9   (    7A'  +    2A"  )


 NUCLEAR REPULSION ENERGY   25.65449769

 Eigenvalues of metric

         1 0.213E-02 0.323E-02 0.328E-02 0.407E-02 0.440E-02 0.468E-02 0.477E-02 0.990E-02
         2 0.330E-02 0.469E-02 0.884E-01 0.986E-01 0.144E+00 0.192E+00 0.258E+00 0.394E+00


 Contracted 2-electron integrals neglected if value below      1.0D-22

        1426049. INTEGRALS WRITTEN OUT IN     349 BLOCKS ON RECORD 1290 OF FILE 1


 NUMBER OF SORTED TWO-ELECTRON INTEGRALS:    1544830.     BUFFER LENGTH:  32768
 NUMBER OF SEGMENTS:   1  SEGMENT LENGTH:    1544830      RECORD LENGTH: 524288

 Memory used in sort:       2.10 MW

 SORT1 READ     1426049. AND WROTE     1455925. INTEGRALS IN      5 RECORDS. CPU TIME:     0.03 SEC, REAL TIME:     0.04 SEC
 SORT2 READ     1455925. AND WROTE     1544830. INTEGRALS IN      1 RECORDS. CPU TIME:     0.05 SEC, REAL TIME:     0.06 SEC

 FILE SIZES:   FILE 1:    53.0 MBYTE,  FILE 4:    21.0 MBYTE,   TOTAL:     74.0 MBYTE

 OPERATOR DM      FOR CENTER  0  COORDINATES:    0.000000    0.000000    0.000000


 **********************************************************************************************************************************
 DATASETS  * FILE   NREC   LENGTH (MB)   RECORD NAMES
              1      19       42.18       500      610      700      900      950      970     1000      129      960     1100   
                                          VAR    BASINP    GEOM    SYMINP    ZMAT    AOBASIS   BASIS     P2S    ABASIS      S 
                                         1400     1410     1200     1210     1080     1600     1650     1300     1700   
                                           T        V       H0       H01     AOSYM     SMH    MOLCAS    ERIS     OPER   

 PROGRAMS   *        TOTAL       INT
 CPU TIMES  *         1.06      0.93
 REAL TIME  *         2.79 SEC
 DISK USED  *        74.32 MB
 **********************************************************************************************************************************


 PROGRAM * RHF-SCF (CLOSED SHELL)       Authors: W. Meyer, H.-J. Werner


 NUMBER OF ELECTRONS:       8+    8-
 CONVERGENCE THRESHOLDS:    1.00E-10 (Density)    1.00E-13 (Energy)
 MAX. NUMBER OF ITERATIONS:      500
 INTERPOLATION TYPE:            DIIS
 INTERPOLATION STEPS:              2 (START)      1 (STEP)
 LEVEL SHIFTS:                  0.00 (CLOSED)  0.00 (OPEN) 



 Orbital guess generated from atomic densities. Full valence occupancy:    9   2

 Molecular orbital dump at record        2100.2

 Initial occupancy:   7   1

 ITERATION    DDIFF          GRAD             ENERGY        2-EL.EN.            DIPOLE MOMENTS         DIIS   ORB.
    1      0.000D+00      0.000D+00      -137.76276495    155.050739   -0.63496    0.37955    0.00000    0    start
    2      0.000D+00      0.115D-01      -137.79267553    155.198300   -0.64813    0.13986    0.00000    1    diag
    3      0.172D-01      0.590D-02      -137.79953609    156.036193   -0.60284    0.32138    0.00000    2    diag
    4      0.563D-02      0.150D-02      -137.80002620    155.753352   -0.59646    0.31376    0.00000    3    diag
    5      0.127D-02      0.299D-03      -137.80009488    155.803113   -0.59522    0.32349    0.00000    4    diag
    6      0.484D-03      0.863D-04      -137.80010299    155.805194   -0.59435    0.32543    0.00000    5    diag
    7      0.172D-03      0.302D-04      -137.80010398    155.805281   -0.59443    0.32516    0.00000    6    diag
    8      0.760D-04      0.660D-05      -137.80010402    155.805094   -0.59443    0.32489    0.00000    7    diag
    9      0.169D-04      0.141D-05      -137.80010403    155.805099   -0.59445    0.32481    0.00000    8    diag
   10      0.317D-05      0.351D-06      -137.80010403    155.805088   -0.59445    0.32479    0.00000    9    orth
   11      0.958D-06      0.833D-07      -137.80010403    155.805086   -0.59445    0.32479    0.00000    9    diag
   12      0.226D-06      0.180D-07      -137.80010403    155.805085   -0.59445    0.32479    0.00000    9    diag
   13      0.432D-07      0.483D-08      -137.80010403    155.805086   -0.59445    0.32479    0.00000    9    diag
   14      0.121D-07      0.149D-08      -137.80010403    155.805085   -0.59445    0.32479    0.00000    9    diag
   15      0.271D-08      0.256D-09      -137.80010403    155.805085   -0.59445    0.32479    0.00000    9    diag
   16      0.396D-09      0.643D-10      -137.80010403    155.805085   -0.59445    0.32479    0.00000    9    diag
   17      0.131D-09      0.149D-10      -137.80010403    155.805085   -0.59445    0.32479    0.00000    9    diag
   18      0.365D-10      0.279D-11      -137.80010403    155.805085   -0.59445    0.32479    0.00000    0    orth

 Final occupancy:   7   1

 !RHF STATE  1.1 Energy              -137.800104025527
 Nuclear energy                        25.65449769
 One-electron energy                 -241.35714445
 Two-electron energy                   77.90254273
 Virial quotient                       -1.00213362
 !RHF STATE  1.1 Dipole moment         -0.59444569     0.32478971     0.00000000
 Dipole moment /Debye                  -1.51083127     0.82547903     0.00000000

 Orbital energies:

         1.1          2.1          3.1          4.1          5.1          6.1          7.1          8.1          9.1
    -26.339278   -11.393744    -1.634289    -0.912143    -0.729811    -0.651119    -0.432095     0.070623     0.081830

         1.2          2.2          3.2
     -0.683551     0.032602     0.117824


 HOMO      7.1    -0.432095 =     -11.7579eV
 LUMO      2.2     0.032602 =       0.8872eV
 LUMO-HOMO         0.464697 =      12.6451eV


 **********************************************************************************************************************************
 DATASETS  * FILE   NREC   LENGTH (MB)   RECORD NAMES
              1      19       42.18       500      610      700      900      950      970     1000      129      960     1100   
                                          VAR    BASINP    GEOM    SYMINP    ZMAT    AOBASIS   BASIS     P2S    ABASIS      S 
                                         1400     1410     1200     1210     1080     1600     1650     1300     1700   
                                           T        V       H0       H01     AOSYM     SMH    MOLCAS    ERIS     OPER   

              2       4        2.84       700     1000      520     2100   
                                         GEOM     BASIS   MCVARS     RHF  

 PROGRAMS   *        TOTAL    HF-SCF       INT
 CPU TIMES  *         1.34      0.28      0.93
 REAL TIME  *         3.19 SEC
 DISK USED  *        74.32 MB
 **********************************************************************************************************************************


 PROGRAM * CCSD (Closed-shell coupled cluster)     Authors: C. Hampel, H.-J. Werner, 1991, M. Deegan, P.J. Knowles, 1992

                                  CCSD-F12 implementation by  H.-J. Werner, 2007

                   Density fitting integral evaluation by F.R. Manby, 2003,2007, G. Knizia, 2010


 Basis set AUG-CC-PVDZ/JKFIT generated.  Number of basis functions:   204 
 Basis set CC-PVDZ-F12/OPTRI generated.  Number of basis functions:   154 
 Basis set AUG-CC-PVDZ/MP2FIT generated. Number of basis functions:   167 

 Convergence thresholds:  THRVAR = 1.00D-16  THRDEN = 1.00D-12

 CCSD(T)     terms to be evaluated (factor= 1.000)


 Number of core orbitals:           2 (   2   0 )
 Number of closed-shell orbitals:   6 (   5   1 )
 Number of external orbitals:      61 (  42  19 )

 Molecular orbitals read from record     2100.2  Type=RHF/CANONICAL (state 1.1)

 MP2-F12 correlation treatment (H.-J. Werner, 2006)
 ==================================================

 Using MP2-F12 with ansatz 3C(FIX)

 Using projected zeroth-order Hamiltonian (+Z)

 FOCKRIB=T FOCKRIC=T FOCKRIP=T CABSP=T CABSA=T CABSK=T CABSF=T GBC=F EBC=F DMAT=T NOFIK=T NOPAO=1 SOLVE=-1  USEPAO=0
 EXCH_A= T EXCH_B= F EXCH_C= F EXCH_P= F

 Geminal basis:    OPTFULL  GEM_TYPE=SLATER  BETA=1.0  NGEM=6

 Optimizing Gaussian exponents for each gem_beta

 Geminal optimization for beta= 1.0000
 Weight function:   m=0, omega= 1.4646

 Augmented Hessian optimization of geminal fit. Trust ratio= 0.40000
 Convergence reached after   2 iterations. Final gradient= 8.66D-16, Step= 4.23D-06, Delta= 1.28D-09

 Alpha:                 0.19532     0.81920     2.85917     9.50073    35.69989   197.79328
 Coeff:                 0.27070     0.30552     0.18297     0.10986     0.06810     0.04224


 Symmetry turned off. Reference energy:       -137.800104025527

 All pairs explicitly correlated. Number of r12-pairs:           21

 Excluding core orbitals from MO domains

 AO(A)-basis ORBITAL           loaded. Number of functions:      69
 RI(R)-basis CC-PVDZ-F12/OPTRI loaded. Number of functions:     154
 DF-basis AUG-CC-PVDZ/JKFIT    loaded. Number of functions:     204

 Screening thresholds:   THRAO=  1.00D-10  THRMO=  1.00D-10  THRPROD=  1.00D-10
                         THRSW=  1.00D-07  THROV=  1.00D-12  THRAOF12= 1.00D-08

 CPU time for Fock operators                      0.91 sec

 Construction of ABS:
 Smallest eigenvalue of S          4.00E-03  (threshold= 1.00E-08)
 Ratio eigmin/eigmax               8.54E-04  (threshold= 1.00E-09)
 Smallest eigenvalue of S kept     4.00E-03  (threshold= 4.00E-03, 0 functions deleted, 154 kept)

 Construction of CABS:
 Smallest eigenvalue of S          1.13E-05  (threshold= 1.00E-08)
 Ratio eigmin/eigmax               1.13E-05  (threshold= 1.00E-09)
 Smallest eigenvalue of S kept     1.13E-05  (threshold= 1.13E-05, 0 functions deleted, 154 kept)

 CPU time for CABS singles                        0.01 sec

 CABS-singles contribution of  -0.00569458 patched into reference energy.
 New reference energy        -137.80579860

 AO(A)-basis ORBITAL           loaded. Number of functions:      69
 RI(R)-basis CC-PVDZ-F12/OPTRI loaded. Number of functions:     154
 DF-basis AUG-CC-PVDZ/MP2FIT   loaded. Number of functions:     167

 Screening thresholds:   THRAO=  1.00D-10  THRMO=  1.00D-10  THRPROD=  1.00D-10
                         THRSW=  1.00D-07  THROV=  1.00D-12  THRAOF12= 1.00D-08

 CPU time for 3-index integral evaluation         0.42 sec
 CPU time for first  half transformation          0.02 sec ( 7598.3 MFLOP/sec)
 CPU time for sorting                             0.01 sec
 CPU time for tilde quantities                    0.01 sec (10307.8 MFLOP/sec)
 CPU time for assembly                            0.02 sec (38743.9 MFLOP/sec)
 CPU time for tranop_f12                          0.04 sec (26124.8 MFLOP/sec)
 CPU time for f12 integrals (total)               1.20 sec, Elapsed time:      1.32 sec
 CPU time for f12 matrices (total)                0.02 sec, Elapsed time:      0.03 sec

 Diagonal F12 approximation with fixed coefficients:  TSING= 0.500,  TTRIP= 0.250 (scaled by -1/beta)

 DF-MP2-F12 energy corrections:
 ==============================
 Approx.                                    Singlet             Triplet             Total
 DF-MP2-F12/3*C(DX,FIX)                -0.077563298281     -0.015942779714     -0.093506077996
 DF-MP2-F12/3*C(FIX)                   -0.068674254831     -0.015061684357     -0.083735939188
 DF-MP2-F12/3C(FIX)                    -0.069327640850     -0.015812908243     -0.085140549092

 DF-MP2-F12 correlation energies:
 ================================
 Approx.                                    Singlet             Triplet             Ecorr            Total Energy
 DF-MP2                                -0.227136014285     -0.132909267078     -0.360045281363   -138.165843883885
 DF-MP2-F12/3*C(DX,FIX)                -0.304699312566     -0.148852046792     -0.453551359359   -138.259349961880
 DF-MP2-F12/3*C(FIX)                   -0.295810269116     -0.147970951435     -0.443781220551   -138.249579823072
 DF-MP2-F12/3C(FIX)                    -0.296463655135     -0.148722175321     -0.445185830456   -138.250984432977

 SCS-DF-MP2 energies (F_SING= 1.20000  F_TRIP= 0.62222  F_PARALLEL= 0.33333):
 ============================================================================
 SCS-DF-MP2                            -0.355262316657   -138.161060919179
 SCS-DF-MP2-F12/3*C(DX,FIX)            -0.458258226417   -138.264056828939
 SCS-DF-MP2-F12/3*C(FIX)               -0.447043137165   -138.252841739687
 SCS-DF-MP2-F12/3C(FIX)                -0.448294628584   -138.254093231105

 Symmetry restored.
 Symmetry transformation completed.

 Number of N-1 electron functions:               6
 Number of N-2 electron functions:              21
 Number of singly external CSFs:               229
 Number of doubly external CSFs:             35788
 Total number of CSFs:                       36018

 Length of J-op  integral file:              15.24 MB
 Length of K-op  integral file:              18.55 MB
 Length of 3-ext integral record:             0.00 MB

 Memory could be reduced to 1.16 Mwords without degradation in triples

 Integral transformation finished. Total CPU:   0.04 sec, npass=  1  Memory used:   0.52 MW

 Reference energy:                   -137.80579860

 Adding F12 terms to K(Cij), methodcc=6,  factor= 1.0

 ITER.      SQ.NORM     CORR.ENERGY   TOTAL ENERGY   ENERGY CHANGE        DEN1      VAR(S)    VAR(P)  DIIS     TIME  TIME/IT
   1      1.09686852    -0.36634173  -138.17214033    -0.00619538     0.00700270  0.34D-02  0.26D-02  1  1     2.29     1.14
   2      1.10747799    -0.36696096  -138.17275956    -0.00061923    -0.01013290  0.97D-04  0.62D-03  2  2     2.35     0.60
   3      1.11500171    -0.36792194  -138.17372055    -0.00096099    -0.00277968  0.14D-03  0.90D-04  3  3     2.40     0.42
   4      1.11952308    -0.36809785  -138.17389645    -0.00017590    -0.00151548  0.15D-04  0.25D-04  4  4     2.45     0.33
   5      1.12224088    -0.36815123  -138.17394984    -0.00005339    -0.00049051  0.22D-05  0.40D-05  5  5     2.50     0.27
   6      1.12321051    -0.36814060  -138.17393920     0.00001064    -0.00006399  0.11D-06  0.61D-06  6  6     2.54     0.24
   7      1.12340759    -0.36814055  -138.17393915     0.00000005    -0.00002442  0.36D-07  0.12D-06  6  4     2.59     0.21
   8      1.12342366    -0.36814170  -138.17394030    -0.00000115     0.00000679  0.86D-08  0.18D-07  6  2     2.65     0.19
   9      1.12342292    -0.36814172  -138.17394032    -0.00000002     0.00000029  0.34D-08  0.24D-08  6  1     2.70     0.18
  10      1.12342007    -0.36814225  -138.17394085    -0.00000054     0.00000078  0.44D-09  0.54D-09  6  3     2.75     0.17
  11      1.12341807    -0.36814223  -138.17394083     0.00000002    -0.00000024  0.22D-09  0.84D-10  6  6     2.80     0.16
  12      1.12341775    -0.36814239  -138.17394100    -0.00000017     0.00000023  0.22D-10  0.15D-10  6  5     2.85     0.15
  13      1.12341726    -0.36814243  -138.17394104    -0.00000004     0.00000007  0.84D-11  0.29D-11  6  4     2.89     0.14
  14      1.12341675    -0.36814247  -138.17394107    -0.00000004     0.00000010  0.15D-11  0.96D-12  6  2     2.94     0.14
  15      1.12341636    -0.36814249  -138.17394109    -0.00000002     0.00000005  0.21D-12  0.36D-12  6  1     3.00     0.13
  16      1.12341613    -0.36814249  -138.17394109    -0.00000000     0.00000002  0.84D-13  0.67D-13  6  6     3.04     0.13
  17      1.12341599    -0.36814250  -138.17394110    -0.00000001     0.00000002  0.35D-14  0.10D-13  6  3     3.08     0.12
  18      1.12341597    -0.36814249  -138.17394110     0.00000000     0.00000000  0.11D-14  0.19D-14  6  4     3.13     0.12
  19      1.12341596    -0.36814249  -138.17394110    -0.00000000     0.00000000  0.86D-16  0.17D-15  6  5     3.19     0.12
  20      1.12341596    -0.36814249  -138.17394110     0.00000000     0.00000000  0.22D-16  0.33D-16  6  2     3.24     0.11
  21      1.12341595    -0.36814249  -138.17394110    -0.00000000     0.00000000  0.47D-17  0.37D-17  6  1     3.29     0.11
  22      1.12341595    -0.36814249  -138.17394110    -0.00000000     0.00000000  0.10D-17  0.63D-18  6  6     3.35     0.11
  23      1.12341595    -0.36814249  -138.17394110     0.00000000     0.00000000  0.22D-18  0.17D-18  6  3     3.40     0.11
  24      1.12341595    -0.36814249  -138.17394110     0.00000000    -0.00000000  0.52D-19  0.38D-19  6  5     3.45     0.10
  25      1.12341595    -0.36814249  -138.17394110     0.00000000    -0.00000000  0.89D-21  0.37D-20  6  4     3.50     0.10
  26      1.12341595    -0.36814249  -138.17394110    -0.00000000    -0.00000000  0.19D-21  0.64D-21  6  2     3.56     0.10
  27      1.12341595    -0.36814249  -138.17394110    -0.00000000    -0.00000000  0.17D-22  0.40D-22  6  3     3.61     0.10

 Norm of t1 vector:      0.09282548      S-energy:    -0.00000000      T1 diagnostic:  0.01894792
                                                                       D1 diagnostic:  0.05679624

 Doubles amplitudes (print threshold =  0.500E-01):

         I         J         SYM. A    SYM. B    A         B      T(IJ, AB)

         5         5         2         2         1         1     -0.05989099

 Adding energy correction from Wij-K(Fij), methodcc=6  factor= 1.0

  CCSD correlation energy              -0.368142494460
  MP2-F12 correction (uncoupled)       -0.080520475391
  C*T doubles correction               -0.002585640716
  f12b correction                       0.010338329935


 Total CPU time for triples:      0.27 sec


 RESULTS
 =======

  Reference energy                   -137.800104025527
  F12 singles correction               -0.005694576995

 F12 singles corrections added to reference energy

  New reference energy               -137.805798602521

  F12a singlet correction              -0.067974679990
  F12a triplet correction              -0.015131436116
  F12a total correction                -0.083106116107

 F12a corrections for ansatz F12/3C(FIX) added to CCSD energy

  CCSD-F12a singlet pair energy        -0.317452338386
  CCSD-F12a triplet pair energy        -0.133796272181
  CCSD-F12a correlation energy         -0.451248610567

  Triples (T) contribution             -0.013423450634
  Total correlation energy             -0.464672061201

  CCSD-F12a total energy             -138.257047213088
  CCSD[T]-F12a energy                -138.271908717242
  CCSD-T-F12a energy                 -138.269982073590
 !CCSD(T)-F12a total energy          -138.270470663722

 F12b corrections for ansatz F12/3C(FIX) added to CCSD(T)-F12a energy

  CCSD-F12b singlet pair energy        -0.308088504638
  CCSD-F12b triplet pair energy        -0.132821775993
  CCSD-F12b correlation energy         -0.440910280632

  Triples (T) contribution             -0.013423450634
  Total correlation energy             -0.454333731266

  CCSD-F12b total energy             -138.246708883153
  CCSD[T]-F12b energy                -138.261570387307
  CCSD-T-F12b energy                 -138.259643743656
 !CCSD(T)-F12b total energy          -138.260132333787

 Timing summary (sec):

 STEP                 CPU(USER)    SYS     CPU(TOT)    WALL
 Transformation          0.04      0.00      0.04      0.05
 CCSD iterations         1.40      0.16      1.56      2.72
 Triples                 0.27      0.02      0.29      0.28
 MP2-F12                 2.17      0.15      2.32      3.44
 F12b energy             0.03      0.00      0.03      0.04

 Program statistics:

 Available memory in ccsd:              1999999744
 Min. memory needed in ccsd:                136839
 Max. memory used in ccsd:                  163083
 Max. memory used in cckext:                208330 (28 integral passes)



 **********************************************************************************************************************************
 DATASETS  * FILE   NREC   LENGTH (MB)   RECORD NAMES
              1      20       45.77       500      610      700      900      950      970     1000      129      960     1100   
                                          VAR    BASINP    GEOM    SYMINP    ZMAT    AOBASIS   BASIS     P2S    ABASIS      S 
                                         1400     1410     1200     1210     1080     1600     1650     1300     1700     1380   
                                           T        V       H0       H01     AOSYM     SMH    MOLCAS    ERIS     OPER     JKOP   

              2       6        2.90       700     1000      520     2100     7360     7350   
                                         GEOM     BASIS   MCVARS     RHF    F12ABS    EF12   

 PROGRAMS   *        TOTAL   CCSD(T)    HF-SCF       INT
 CPU TIMES  *         5.28      3.93      0.28      0.93
 REAL TIME  *         9.76 SEC
 DISK USED  *        97.74 MB
 **********************************************************************************************************************************
 SETTING EE(1)          =      -138.26013233  AU                              


 Computing numerical gradient using default procedure for command CCSD(T)-F12

 *** Long output written to logfile /home/mdavis/f12eom_optimizer/tests/slurm/molpro_step.log ***


 Running default procedure: HF-SCF000  CCSD(T)-F12


 Generated   3 symmetrical displacements

 Numerical gradient for CCSD(T)-F12

 Total Energy          -138.26013233  Dipole moments:    0.000000    0.000000    0.000000

 Atom          dE/dx               dE/dy               dE/dz                  d2E/dx2             d2E/dy2             d2E/dz2
   1        -0.016424810         0.002298837         0.000000000            0.000000000         0.000000000         0.000000000
   2         0.023093178         0.048669892        -0.000000000            0.000000000         0.000000000         0.000000000
   3        -0.006668368        -0.050968729         0.000000000            0.000000000         0.000000000         0.000000000

 Recomputing wavefunction at initial geometry


 **********************************************************************************************************************************
 DATASETS  * FILE   NREC   LENGTH (MB)   RECORD NAMES
              1      21       45.99       500      610      700      900      701      950      970     1000      129      960   
                                          VAR    BASINP    GEOM    SYMINP    GEOM     ZMAT    AOBASIS   BASIS     P2S    ABASIS    
                                         1100     1400     1410     1200     1210     1080     1600     1650     1300     1700   
                                           S        T        V       H0       H01     AOSYM     SMH    MOLCAS    ERIS     OPER   
                                         1380   
                                         JKOP   

              2       8        3.12       700     1000      520     2100     7360     7350      701     5600   
                                         GEOM     BASIS   MCVARS     RHF    F12ABS    EF12     GEOM     GINFO   

 PROGRAMS   *        TOTAL    FORCES    HF-SCF       INT   CCSD(T)    HF-SCF       INT
 CPU TIMES  *        41.60      3.79      0.03     32.50      3.93      0.28      0.93
 REAL TIME  *        53.97 SEC
 DISK USED  *       100.73 MB
 **********************************************************************************************************************************
 EE(1)            =     -138.260132333788 AU
 GRADX(1:3)       = [     -0.016424810134    0.023093178156   -0.006668368022] AU
 GRADY(1:3)       = [      0.002298837363    0.048669891933   -0.050968729295] AU
 GRADZ(1:3)       = [      0.000000000000   -0.000000000000    0.000000000000] AU

 CCSD(T)-F12/cc-pVDZ-F12 energy=   -138.260132333788

     CCSD(T)-F12          HF-SCF     CCSD(T)-F12          HF-SCF
   -138.26013233   -137.80010403   -138.26013233   -137.80010403
 **********************************************************************************************************************************
 Molpro calculation terminated
