
 Primary working directories    : /scratch/mdavis/molpro_step_2022-08-17_17_26_46/molpro.Hw1B1W9SRf
 Secondary working directories  : /scratch/mdavis/molpro_step_2022-08-17_17_26_46/molpro.Hw1B1W9SRf
 Wavefunction directory         : /home/mdavis/f12eom_optimizer/tests/slurm/./
 Main file repository           : /scratch/mdavis/molpro_step_2022-08-17_17_26_46/molpro.Hw1B1W9SRf/

 id        : olemiss

 Nodes     nprocs
 node17       1

 Using customized tuning parameters: mindgm=1; mindgv=20; mindgc=4; mindgr=1; noblas=0; minvec=7
 default implementation of scratch files=df  


 Variables initialized (945), CPU time= 0.01 sec
 ***,part of geometry opt run
 memory, 2000.0, m;
 gthresh,energy=1.d-12,zero=1.d-22,oneint=1.d-22,twoint=1.d-22;
 gthresh,optgrad=1.d-8,optstep=1.d-8;
 nocompress;
 bohr;
 geometry={
      3
 Fragment 1
     H  -1.6054786356   1.6834037814   0.0000000000
     C   0.4899092866   1.1236585395   0.0000000000
     F   0.2369220836  -1.4867824710   0.0000000000
      }
 
 set,charge=0
 set,spin=0
 basis=vdz-f12
 hf,maxit=500;wf,charge=0,spin=0;accu,20;
 ccsd(t)-f12,maxit=250;wf,charge=0,spin=0;orbital,IGNORE_ERROR;
 ee(1)=energy(2)
 forces,varsav
 SHOW[f18.12],ee(1)
 SHOW[f18.12],GRADX
 SHOW[f18.12],GRADY
 SHOW[f18.12],GRADZ
 Commands  initialized (802), CPU time= 0.01 sec, 659 directives.
 Default parameters read. Elapsed time= 0.10 sec

 Checking input...
 Passed
1


                                         ***  PROGRAM SYSTEM MOLPRO  ***
                                       Copyright, TTI GmbH Stuttgart, 2015
                                    Version 2020.1 linked Oct  6 2020 12:04:11


 **********************************************************************************************************************************
 LABEL *   part of geometry opt run                                                      
  64 bit serial version                                                                  DATE: 17-Aug-22          TIME: 17:26:47  
 **********************************************************************************************************************************

 SHA1:             8c27446f6450a7499e38f603e13c65f775101d37
 **********************************************************************************************************************************

 Memory per process:      2000 MW
 Total memory per node:   2000 MW

 GA preallocation disabled
 GA check disabled

 Variable memory set to 2000.0 MW


 THRESHOLDS:

 ZERO    =  1.00D-22  ONEINT  =  1.00D-22  TWOINT  =  1.00D-22  PREFAC  =  1.00D-14  XXXXXX  =  1.00D-09  EORDER  =  1.00D-04
 ENERGY  =  1.00D-12  ETEST   =  0.00D+00  EDENS   =  0.00D+00  THRDEDEF=  1.00D-06  GRADIENT=  1.00D-05  STEP    =  1.00D-03
 ORBITAL =  1.00D-05  CIVEC   =  1.00D-05  COEFF   =  1.00D-04  PRINTCI =  5.00D-02  PUNCHCI =  9.90D+01  OPTGRAD =  3.00D-04
 OPTENERG=  1.00D-06  OPTSTEP =  3.00D-04  THRGRAD =  1.00D-10  COMPRESS=  1.00D-11  VARMIN  =  1.00D-07  VARMAX  =  1.00D-03
 THRDOUB =  0.00D+00  THRDIV  =  1.00D-05  THRRED  =  1.00D-07  THRPSP  =  1.00D+00  THRDC   =  1.00D-10  THRCS   =  1.00D-10
 THRNRM  =  1.00D-08  THREQ   =  0.00D+00  THRDE   =  1.00D+00  THRREF  =  1.00D-05  SPARFAC =  1.00D+00  THRDLP  =  1.00D-07
 THRDIA  =  1.00D-10  THRDLS  =  1.00D-07  THRGPS  =  0.00D+00  THRKEX  =  0.00D+00  THRDIS  =  2.00D-01  THRVAR  =  1.00D-10
 THRLOC  =  1.00D-06  THRGAP  =  1.00D-06  THRLOCT = -1.00D+00  THRGAPT = -1.00D+00  THRORB  =  1.00D-06  THRMLTP =  0.00D+00
 THRCPQCI=  1.00D-10  KEXTA   =  0.00D+00  THRCOARS=  0.00D+00  SYMTOL  =  1.00D-06  GRADTOL =  1.00D-06  THROVL  =  1.00D-08
 THRORTH =  1.00D-08  GRID    =  1.00D-06  GRIDMAX =  1.00D-03  DTMAX   =  0.00D+00  THROCCDE=  1.00D-01  THROCCDE=  1.00D-01
 THRPRINT=  2.50D-01


 THRESHOLDS:

 ZERO    =  1.00D-22  ONEINT  =  1.00D-22  TWOINT  =  1.00D-22  PREFAC  =  1.00D-14  XXXXXX  =  1.00D-09  EORDER  =  1.00D-04
 ENERGY  =  1.00D-12  ETEST   =  0.00D+00  EDENS   =  0.00D+00  THRDEDEF=  1.00D-06  GRADIENT=  1.00D-05  STEP    =  1.00D-03
 ORBITAL =  1.00D-05  CIVEC   =  1.00D-05  COEFF   =  1.00D-04  PRINTCI =  5.00D-02  PUNCHCI =  9.90D+01  OPTGRAD =  1.00D-08
 OPTENERG=  1.00D-06  OPTSTEP =  1.00D-08  THRGRAD =  1.00D-10  COMPRESS=  1.00D-11  VARMIN  =  1.00D-07  VARMAX  =  1.00D-03
 THRDOUB =  0.00D+00  THRDIV  =  1.00D-05  THRRED  =  1.00D-07  THRPSP  =  1.00D+00  THRDC   =  1.00D-10  THRCS   =  1.00D-10
 THRNRM  =  1.00D-08  THREQ   =  0.00D+00  THRDE   =  1.00D+00  THRREF  =  1.00D-05  SPARFAC =  1.00D+00  THRDLP  =  1.00D-07
 THRDIA  =  1.00D-10  THRDLS  =  1.00D-07  THRGPS  =  0.00D+00  THRKEX  =  0.00D+00  THRDIS  =  2.00D-01  THRVAR  =  1.00D-10
 THRLOC  =  1.00D-06  THRGAP  =  1.00D-06  THRLOCT = -1.00D+00  THRGAPT = -1.00D+00  THRORB  =  1.00D-06  THRMLTP =  0.00D+00
 THRCPQCI=  1.00D-10  KEXTA   =  0.00D+00  THRCOARS=  0.00D+00  SYMTOL  =  1.00D-06  GRADTOL =  1.00D-06  THROVL  =  1.00D-08
 THRORTH =  1.00D-08  GRID    =  1.00D-06  GRIDMAX =  1.00D-03  DTMAX   =  0.00D+00  THROCCDE=  1.00D-01  THROCCDE=  1.00D-01
 THRPRINT=  2.50D-01


 Input parameters for SORTINT:

 COMPRESS =    0.000000
 C_FINAL  =    1.000000
 DEBUG    =   -1.000000
 C_SORT1  =    0.000000
 C_SEWARD =    0.000000
 THRESH   =    0.000000
 IO       =  molpro                                                                                                                          
 SPRI     =    0.000000
 ZUNIT=BOHR


 Geometry recognized as XYZ

 SETTING CHARGE         =     0.00000000D+00                                  
 SETTING SPIN           =     0.00000000D+00                                  
 SETTING BASIS          =    VDZ-F12


 Recomputing integrals since basis changed


 Using spherical harmonics

 Library entry H      S cc-pVDZ-F12          selected for orbital group  1
 Library entry H      P cc-pVDZ-F12          selected for orbital group  1
 Library entry C      S cc-pVDZ-F12          selected for orbital group  2
 Library entry C      P cc-pVDZ-F12          selected for orbital group  2
 Library entry C      D cc-pVDZ-F12          selected for orbital group  2
 Library entry F      S cc-pVDZ-F12          selected for orbital group  3
 Library entry F      P cc-pVDZ-F12          selected for orbital group  3
 Library entry F      D cc-pVDZ-F12          selected for orbital group  3


 PROGRAM * SEWARD (Integral evaluation for generally contracted gaussian basis sets)     Author: Roland Lindh, 1990

 Geometry written to block  1 of record 700


 Point group  Cs  



 ATOMIC COORDINATES

 NR  ATOM    CHARGE       X              Y              Z

   1  H       1.00   -1.605478636    1.683403781    0.000000000
   2  C       6.00    0.489909287    1.123658540    0.000000000
   3  F       9.00    0.236922084   -1.486782471    0.000000000

 Bond lengths in Bohr (Angstrom)

 1-2  2.168862670  2-3  2.622671309
     ( 1.147712698)     ( 1.387857888)

 Bond angles

  1-2-3   99.42085517

 NUCLEAR CHARGE:                   16
 NUMBER OF PRIMITIVE AOS:          93
 NUMBER OF SYMMETRY AOS:           89
 NUMBER OF CONTRACTIONS:           69   (   49A'  +   20A"  )
 NUMBER OF INNER CORE ORBITALS:     0   (    0A'  +    0A"  )
 NUMBER OF OUTER CORE ORBITALS:     2   (    2A'  +    0A"  )
 NUMBER OF VALENCE ORBITALS:        9   (    7A'  +    2A"  )


 NUCLEAR REPULSION ENERGY   25.81065944

 Eigenvalues of metric

         1 0.208E-02 0.323E-02 0.328E-02 0.398E-02 0.436E-02 0.468E-02 0.476E-02 0.982E-02
         2 0.330E-02 0.468E-02 0.878E-01 0.980E-01 0.143E+00 0.190E+00 0.257E+00 0.394E+00


 Contracted 2-electron integrals neglected if value below      1.0D-22

        1426049. INTEGRALS WRITTEN OUT IN     349 BLOCKS ON RECORD 1290 OF FILE 1


 NUMBER OF SORTED TWO-ELECTRON INTEGRALS:    1544830.     BUFFER LENGTH:  32768
 NUMBER OF SEGMENTS:   1  SEGMENT LENGTH:    1544830      RECORD LENGTH: 524288

 Memory used in sort:       2.10 MW

 SORT1 READ     1426049. AND WROTE     1455925. INTEGRALS IN      5 RECORDS. CPU TIME:     0.02 SEC, REAL TIME:     0.04 SEC
 SORT2 READ     1455925. AND WROTE     1544830. INTEGRALS IN      1 RECORDS. CPU TIME:     0.05 SEC, REAL TIME:     0.06 SEC

 FILE SIZES:   FILE 1:    53.0 MBYTE,  FILE 4:    21.0 MBYTE,   TOTAL:     74.0 MBYTE

 OPERATOR DM      FOR CENTER  0  COORDINATES:    0.000000    0.000000    0.000000


 **********************************************************************************************************************************
 DATASETS  * FILE   NREC   LENGTH (MB)   RECORD NAMES
              1      19       42.18       500      610      700      900      950      970     1000      129      960     1100   
                                          VAR    BASINP    GEOM    SYMINP    ZMAT    AOBASIS   BASIS     P2S    ABASIS      S 
                                         1400     1410     1200     1210     1080     1600     1650     1300     1700   
                                           T        V       H0       H01     AOSYM     SMH    MOLCAS    ERIS     OPER   

 PROGRAMS   *        TOTAL       INT
 CPU TIMES  *         1.03      0.89
 REAL TIME  *         2.64 SEC
 DISK USED  *        74.32 MB
 **********************************************************************************************************************************


 PROGRAM * RHF-SCF (CLOSED SHELL)       Authors: W. Meyer, H.-J. Werner


 NUMBER OF ELECTRONS:       8+    8-
 CONVERGENCE THRESHOLDS:    1.00E-10 (Density)    1.00E-13 (Energy)
 MAX. NUMBER OF ITERATIONS:      500
 INTERPOLATION TYPE:            DIIS
 INTERPOLATION STEPS:              2 (START)      1 (STEP)
 LEVEL SHIFTS:                  0.00 (CLOSED)  0.00 (OPEN) 



 Orbital guess generated from atomic densities. Full valence occupancy:    9   2

 Molecular orbital dump at record        2100.2

 Initial occupancy:   7   1

 ITERATION    DDIFF          GRAD             ENERGY        2-EL.EN.            DIPOLE MOMENTS         DIIS   ORB.
    1      0.000D+00      0.000D+00      -137.76518895    155.259814   -0.64245    0.34064    0.00000    0    start
    2      0.000D+00      0.113D-01      -137.79469327    155.503975   -0.64980    0.12207    0.00000    1    diag
    3      0.169D-01      0.566D-02      -137.80103054    156.287308   -0.60651    0.29622    0.00000    2    diag
    4      0.545D-02      0.149D-02      -137.80150983    156.009191   -0.60049    0.28863    0.00000    3    diag
    5      0.126D-02      0.299D-03      -137.80157718    156.060097   -0.59929    0.29859    0.00000    4    diag
    6      0.479D-03      0.853D-04      -137.80158498    156.062151   -0.59845    0.30061    0.00000    5    diag
    7      0.169D-03      0.297D-04      -137.80158591    156.062277   -0.59853    0.30040    0.00000    6    diag
    8      0.737D-04      0.645D-05      -137.80158595    156.062092   -0.59852    0.30015    0.00000    7    diag
    9      0.163D-04      0.137D-05      -137.80158595    156.062099   -0.59854    0.30007    0.00000    8    diag
   10      0.307D-05      0.338D-06      -137.80158595    156.062088   -0.59854    0.30006    0.00000    9    orth
   11      0.920D-06      0.802D-07      -137.80158595    156.062086   -0.59854    0.30005    0.00000    9    diag
   12      0.218D-06      0.172D-07      -137.80158595    156.062086   -0.59854    0.30005    0.00000    9    diag
   13      0.406D-07      0.458D-08      -137.80158595    156.062086   -0.59854    0.30005    0.00000    9    diag
   14      0.113D-07      0.140D-08      -137.80158595    156.062086   -0.59854    0.30005    0.00000    9    diag
   15      0.257D-08      0.248D-09      -137.80158595    156.062086   -0.59854    0.30005    0.00000    9    diag
   16      0.363D-09      0.618D-10      -137.80158595    156.062086   -0.59854    0.30005    0.00000    9    diag
   17      0.124D-09      0.139D-10      -137.80158595    156.062086   -0.59854    0.30005    0.00000    9    diag
   18      0.336D-10      0.267D-11      -137.80158595    156.062086   -0.59854    0.30005    0.00000    0    orth

 Final occupancy:   7   1

 !RHF STATE  1.1 Energy              -137.801585950278
 Nuclear energy                        25.81065944
 One-electron energy                 -241.64328850
 Two-electron energy                   78.03104311
 Virial quotient                       -1.00203014
 !RHF STATE  1.1 Dipole moment         -0.59854061     0.30005313     0.00000000
 Dipole moment /Debye                  -1.52123885     0.76260902     0.00000000

 Orbital energies:

         1.1          2.1          3.1          4.1          5.1          6.1          7.1          8.1          9.1
    -26.341840   -11.391426    -1.639563    -0.913833    -0.733745    -0.653599    -0.429586     0.070659     0.081920

         1.2          2.2          3.2
     -0.687009     0.033834     0.118490


 HOMO      7.1    -0.429586 =     -11.6896eV
 LUMO      2.2     0.033834 =       0.9207eV
 LUMO-HOMO         0.463420 =      12.6103eV


 **********************************************************************************************************************************
 DATASETS  * FILE   NREC   LENGTH (MB)   RECORD NAMES
              1      19       42.18       500      610      700      900      950      970     1000      129      960     1100   
                                          VAR    BASINP    GEOM    SYMINP    ZMAT    AOBASIS   BASIS     P2S    ABASIS      S 
                                         1400     1410     1200     1210     1080     1600     1650     1300     1700   
                                           T        V       H0       H01     AOSYM     SMH    MOLCAS    ERIS     OPER   

              2       4        2.84       700     1000      520     2100   
                                         GEOM     BASIS   MCVARS     RHF  

 PROGRAMS   *        TOTAL    HF-SCF       INT
 CPU TIMES  *         1.27      0.24      0.89
 REAL TIME  *         2.98 SEC
 DISK USED  *        74.32 MB
 **********************************************************************************************************************************


 PROGRAM * CCSD (Closed-shell coupled cluster)     Authors: C. Hampel, H.-J. Werner, 1991, M. Deegan, P.J. Knowles, 1992

                                  CCSD-F12 implementation by  H.-J. Werner, 2007

                   Density fitting integral evaluation by F.R. Manby, 2003,2007, G. Knizia, 2010


 Basis set AUG-CC-PVDZ/JKFIT generated.  Number of basis functions:   204 
 Basis set CC-PVDZ-F12/OPTRI generated.  Number of basis functions:   154 
 Basis set AUG-CC-PVDZ/MP2FIT generated. Number of basis functions:   167 

 Convergence thresholds:  THRVAR = 1.00D-16  THRDEN = 1.00D-12

 CCSD(T)     terms to be evaluated (factor= 1.000)


 Number of core orbitals:           2 (   2   0 )
 Number of closed-shell orbitals:   6 (   5   1 )
 Number of external orbitals:      61 (  42  19 )

 Molecular orbitals read from record     2100.2  Type=RHF/CANONICAL (state 1.1)

 MP2-F12 correlation treatment (H.-J. Werner, 2006)
 ==================================================

 Using MP2-F12 with ansatz 3C(FIX)

 Using projected zeroth-order Hamiltonian (+Z)

 FOCKRIB=T FOCKRIC=T FOCKRIP=T CABSP=T CABSA=T CABSK=T CABSF=T GBC=F EBC=F DMAT=T NOFIK=T NOPAO=1 SOLVE=-1  USEPAO=0
 EXCH_A= T EXCH_B= F EXCH_C= F EXCH_P= F

 Geminal basis:    OPTFULL  GEM_TYPE=SLATER  BETA=1.0  NGEM=6

 Optimizing Gaussian exponents for each gem_beta

 Geminal optimization for beta= 1.0000
 Weight function:   m=0, omega= 1.4646

 Augmented Hessian optimization of geminal fit. Trust ratio= 0.40000
 Convergence reached after   2 iterations. Final gradient= 8.66D-16, Step= 4.23D-06, Delta= 1.28D-09

 Alpha:                 0.19532     0.81920     2.85917     9.50073    35.69989   197.79328
 Coeff:                 0.27070     0.30552     0.18297     0.10986     0.06810     0.04224


 Symmetry turned off. Reference energy:       -137.801585950278

 All pairs explicitly correlated. Number of r12-pairs:           21

 Excluding core orbitals from MO domains

 AO(A)-basis ORBITAL           loaded. Number of functions:      69
 RI(R)-basis CC-PVDZ-F12/OPTRI loaded. Number of functions:     154
 DF-basis AUG-CC-PVDZ/JKFIT    loaded. Number of functions:     204

 Screening thresholds:   THRAO=  1.00D-10  THRMO=  1.00D-10  THRPROD=  1.00D-10
                         THRSW=  1.00D-07  THROV=  1.00D-12  THRAOF12= 1.00D-08

 CPU time for Fock operators                      0.89 sec

 Construction of ABS:
 Smallest eigenvalue of S          3.97E-03  (threshold= 1.00E-08)
 Ratio eigmin/eigmax               8.45E-04  (threshold= 1.00E-09)
 Smallest eigenvalue of S kept     3.97E-03  (threshold= 3.97E-03, 0 functions deleted, 154 kept)

 Construction of CABS:
 Smallest eigenvalue of S          1.12E-05  (threshold= 1.00E-08)
 Ratio eigmin/eigmax               1.12E-05  (threshold= 1.00E-09)
 Smallest eigenvalue of S kept     1.12E-05  (threshold= 1.12E-05, 0 functions deleted, 154 kept)

 CPU time for CABS singles                        0.01 sec

 CABS-singles contribution of  -0.00575590 patched into reference energy.
 New reference energy        -137.80734185

 AO(A)-basis ORBITAL           loaded. Number of functions:      69
 RI(R)-basis CC-PVDZ-F12/OPTRI loaded. Number of functions:     154
 DF-basis AUG-CC-PVDZ/MP2FIT   loaded. Number of functions:     167

 Screening thresholds:   THRAO=  1.00D-10  THRMO=  1.00D-10  THRPROD=  1.00D-10
                         THRSW=  1.00D-07  THROV=  1.00D-12  THRAOF12= 1.00D-08

 CPU time for 3-index integral evaluation         0.39 sec
 CPU time for first  half transformation          0.01 sec (15196.5 MFLOP/sec)
 CPU time for second half transformation          0.02 sec (  387.2 MFLOP/sec)
 CPU time for sorting                             0.01 sec
 CPU time for tilde quantities                    0.02 sec ( 5153.9 MFLOP/sec)
 CPU time for assembly                            0.02 sec (38743.9 MFLOP/sec)
 CPU time for tranop_f12                          0.05 sec (20899.9 MFLOP/sec)
 CPU time for f12 integrals (total)               1.17 sec, Elapsed time:      1.26 sec
 CPU time for f12 matrices (total)                0.02 sec, Elapsed time:      0.02 sec

 Diagonal F12 approximation with fixed coefficients:  TSING= 0.500,  TTRIP= 0.250 (scaled by -1/beta)

 DF-MP2-F12 energy corrections:
 ==============================
 Approx.                                    Singlet             Triplet             Total
 DF-MP2-F12/3*C(DX,FIX)                -0.077620695320     -0.015971430152     -0.093592125472
 DF-MP2-F12/3*C(FIX)                   -0.068701800415     -0.015083593517     -0.083785393932
 DF-MP2-F12/3C(FIX)                    -0.069357537827     -0.015838690930     -0.085196228756

 DF-MP2-F12 correlation energies:
 ================================
 Approx.                                    Singlet             Triplet             Ecorr            Total Energy
 DF-MP2                                -0.226782415923     -0.132790864688     -0.359573280611   -138.166915131508
 DF-MP2-F12/3*C(DX,FIX)                -0.304403111242     -0.148762294840     -0.453165406082   -138.260507256980
 DF-MP2-F12/3*C(FIX)                   -0.295484216338     -0.147874458205     -0.443358674543   -138.250700525441
 DF-MP2-F12/3C(FIX)                    -0.296139953749     -0.148629555618     -0.444769509367   -138.252111360265

 SCS-DF-MP2 energies (F_SING= 1.20000  F_TRIP= 0.62222  F_PARALLEL= 0.33333):
 ============================================================================
 SCS-DF-MP2                            -0.354764326024   -138.162106176922
 SCS-DF-MP2-F12/3*C(DX,FIX)            -0.457846939169   -138.265188790067
 SCS-DF-MP2-F12/3*C(FIX)               -0.446591833600   -138.253933684497
 SCS-DF-MP2-F12/3C(FIX)                -0.447848556883   -138.255190407781

 Symmetry restored.
 Symmetry transformation completed.

 Number of N-1 electron functions:               6
 Number of N-2 electron functions:              21
 Number of singly external CSFs:               229
 Number of doubly external CSFs:             35788
 Total number of CSFs:                       36018

 Length of J-op  integral file:              15.24 MB
 Length of K-op  integral file:              18.55 MB
 Length of 3-ext integral record:             0.00 MB

 Memory could be reduced to 1.16 Mwords without degradation in triples

 Integral transformation finished. Total CPU:   0.03 sec, npass=  1  Memory used:   0.52 MW

 Reference energy:                   -137.80734185

 Adding F12 terms to K(Cij), methodcc=6,  factor= 1.0

 ITER.      SQ.NORM     CORR.ENERGY   TOTAL ENERGY   ENERGY CHANGE        DEN1      VAR(S)    VAR(P)  DIIS     TIME  TIME/IT
   1      1.09641482    -0.36588841  -138.17323026    -0.00621424     0.00682141  0.33D-02  0.25D-02  1  1     2.23     0.05
   2      1.10691002    -0.36652180  -138.17386365    -0.00063339    -0.01003148  0.96D-04  0.61D-03  2  2     2.29     0.05
   3      1.11432175    -0.36746701  -138.17480886    -0.00094521    -0.00275427  0.14D-03  0.89D-04  3  3     2.34     0.05
   4      1.11877671    -0.36764423  -138.17498608    -0.00017721    -0.00149591  0.14D-04  0.24D-04  4  4     2.39     0.05
   5      1.12143068    -0.36769726  -138.17503911    -0.00005303    -0.00047782  0.20D-05  0.40D-05  5  5     2.44     0.05
   6      1.12237466    -0.36768706  -138.17502891     0.00001020    -0.00006259  0.99D-07  0.61D-06  6  6     2.49     0.05
   7      1.12256422    -0.36768758  -138.17502943    -0.00000053    -0.00002317  0.38D-07  0.12D-06  6  4     2.54     0.05
   8      1.12257582    -0.36768811  -138.17502996    -0.00000053     0.00000617  0.10D-07  0.19D-07  6  1     2.59     0.05
   9      1.12257682    -0.36768900  -138.17503085    -0.00000088     0.00000126  0.31D-08  0.24D-08  6  2     2.63     0.06
  10      1.12257429    -0.36768942  -138.17503127    -0.00000042     0.00000023  0.50D-09  0.44D-09  6  3     2.68     0.06
  11      1.12257305    -0.36768951  -138.17503136    -0.00000009     0.00000013  0.16D-09  0.66D-10  6  5     2.72     0.06
  12      1.12257197    -0.36768964  -138.17503149    -0.00000013     0.00000019  0.20D-10  0.15D-10  6  6     2.78     0.06
  13      1.12257086    -0.36768969  -138.17503154    -0.00000004     0.00000013  0.50D-11  0.21D-11  6  1     2.83     0.06
  14      1.12257027    -0.36768972  -138.17503157    -0.00000004     0.00000013  0.32D-12  0.36D-12  6  4     2.88     0.06
  15      1.12257009    -0.36768973  -138.17503158    -0.00000001     0.00000002  0.69D-13  0.91D-13  6  2     2.93     0.06
  16      1.12256999    -0.36768973  -138.17503158    -0.00000000     0.00000002  0.68D-14  0.15D-13  6  3     2.99     0.06
  17      1.12256997    -0.36768973  -138.17503158    -0.00000000     0.00000000  0.12D-14  0.19D-14  6  5     3.04     0.06
  18      1.12256996    -0.36768973  -138.17503158     0.00000000    -0.00000000  0.37D-15  0.37D-15  6  6     3.09     0.06
  19      1.12256996    -0.36768973  -138.17503158     0.00000000     0.00000000  0.14D-15  0.92D-16  6  1     3.13     0.06
  20      1.12256996    -0.36768973  -138.17503158     0.00000000    -0.00000000  0.23D-16  0.21D-16  6  4     3.19     0.06
  21      1.12256996    -0.36768973  -138.17503158    -0.00000000     0.00000000  0.77D-17  0.39D-17  6  2     3.24     0.06
  22      1.12256996    -0.36768973  -138.17503158     0.00000000    -0.00000000  0.58D-18  0.71D-18  6  5     3.28     0.06
  23      1.12256996    -0.36768973  -138.17503158     0.00000000     0.00000000  0.98D-19  0.34D-19  6  3     3.34     0.06
  24      1.12256996    -0.36768973  -138.17503158     0.00000000    -0.00000000  0.31D-19  0.76D-20  6  6     3.39     0.06
  25      1.12256996    -0.36768973  -138.17503158     0.00000000    -0.00000000  0.42D-20  0.16D-20  6  1     3.44     0.06
  26      1.12256996    -0.36768973  -138.17503158     0.00000000    -0.00000000  0.98D-21  0.24D-21  6  4     3.50     0.06
  27      1.12256996    -0.36768973  -138.17503158    -0.00000000     0.00000000  0.11D-21  0.47D-22  6  2     3.55     0.06

 Norm of t1 vector:      0.09149808      S-energy:     0.00000000      T1 diagnostic:  0.01867697
                                                                       D1 diagnostic:  0.05590772

 Doubles amplitudes (print threshold =  0.500E-01):

         I         J         SYM. A    SYM. B    A         B      T(IJ, AB)

         5         5         2         2         1         1     -0.05921909

 Adding energy correction from Wij-K(Fij), methodcc=6  factor= 1.0

  CCSD correlation energy              -0.367689731052
  MP2-F12 correction (uncoupled)       -0.080557309180
  C*T doubles correction               -0.002596791966
  f12b correction                       0.010321801556


 Total CPU time for triples:      0.27 sec


 RESULTS
 =======

  Reference energy                   -137.801585950278
  F12 singles correction               -0.005755900620

 F12 singles corrections added to reference energy

  New reference energy               -137.807341850898

  F12a singlet correction              -0.068000664510
  F12a triplet correction              -0.015153436636
  F12a total correction                -0.083154101146

 F12a corrections for ansatz F12/3C(FIX) added to CCSD energy

  CCSD-F12a singlet pair energy        -0.317034687295
  CCSD-F12a triplet pair energy        -0.133809144904
  CCSD-F12a correlation energy         -0.450843832198

  Triples (T) contribution             -0.013317842349
  Total correlation energy             -0.464161674547

  CCSD-F12a total energy             -138.258185683096
  CCSD[T]-F12a energy                -138.272902498444
  CCSD-T-F12a energy                 -138.271028352501
 !CCSD(T)-F12a total energy          -138.271503525445

 F12b corrections for ansatz F12/3C(FIX) added to CCSD(T)-F12a energy

  CCSD-F12b singlet pair energy        -0.307687321550
  CCSD-F12b triplet pair energy        -0.132834709092
  CCSD-F12b correlation energy         -0.440522030642

  Triples (T) contribution             -0.013317842349
  Total correlation energy             -0.453839872991

  CCSD-F12b total energy             -138.247863881540
  CCSD[T]-F12b energy                -138.262580696888
  CCSD-T-F12b energy                 -138.260706550945
 !CCSD(T)-F12b total energy          -138.261181723889

 Timing summary (sec):

 STEP                 CPU(USER)    SYS     CPU(TOT)    WALL
 Transformation          0.03      0.01      0.04      0.04
 CCSD iterations         1.40      0.13      1.53      1.56
 Triples                 0.27      0.00      0.27      0.27
 MP2-F12                 2.12      0.11      2.23      2.50
 F12b energy             0.03      0.00      0.03      0.03

 Program statistics:

 Available memory in ccsd:              1999999744
 Min. memory needed in ccsd:                136839
 Max. memory used in ccsd:                  163083
 Max. memory used in cckext:                208330 (28 integral passes)



 **********************************************************************************************************************************
 DATASETS  * FILE   NREC   LENGTH (MB)   RECORD NAMES
              1      20       45.77       500      610      700      900      950      970     1000      129      960     1100   
                                          VAR    BASINP    GEOM    SYMINP    ZMAT    AOBASIS   BASIS     P2S    ABASIS      S 
                                         1400     1410     1200     1210     1080     1600     1650     1300     1700     1380   
                                           T        V       H0       H01     AOSYM     SMH    MOLCAS    ERIS     OPER     JKOP   

              2       6        2.90       700     1000      520     2100     7360     7350   
                                         GEOM     BASIS   MCVARS     RHF    F12ABS    EF12   

 PROGRAMS   *        TOTAL   CCSD(T)    HF-SCF       INT
 CPU TIMES  *         5.14      3.87      0.24      0.89
 REAL TIME  *         7.41 SEC
 DISK USED  *        97.74 MB
 **********************************************************************************************************************************
 SETTING EE(1)          =      -138.26118172  AU                              


 Computing numerical gradient using default procedure for command CCSD(T)-F12

 *** Long output written to logfile /home/mdavis/f12eom_optimizer/tests/slurm/molpro_step.log ***


 Running default procedure: HF-SCF000  CCSD(T)-F12


 Generated   3 symmetrical displacements

 Numerical gradient for CCSD(T)-F12

 Total Energy          -138.26118172  Dipole moments:    0.000000    0.000000    0.000000

 Atom          dE/dx               dE/dy               dE/dz                  d2E/dx2             d2E/dy2             d2E/dz2
   1        -0.015042911         0.002801999         0.000000000            0.000000000         0.000000000         0.000000000
   2         0.020578813         0.044244733         0.000000000            0.000000000         0.000000000         0.000000000
   3        -0.005535902        -0.047046732         0.000000000            0.000000000         0.000000000         0.000000000

 Recomputing wavefunction at initial geometry


 **********************************************************************************************************************************
 DATASETS  * FILE   NREC   LENGTH (MB)   RECORD NAMES
              1      21       45.99       500      610      700      900      701      950      970     1000      129      960   
                                          VAR    BASINP    GEOM    SYMINP    GEOM     ZMAT    AOBASIS   BASIS     P2S    ABASIS    
                                         1100     1400     1410     1200     1210     1080     1600     1650     1300     1700   
                                           S        T        V       H0       H01     AOSYM     SMH    MOLCAS    ERIS     OPER   
                                         1380   
                                         JKOP   

              2       8        3.12       700     1000      520     2100     7360     7350      701     5600   
                                         GEOM     BASIS   MCVARS     RHF    F12ABS    EF12     GEOM     GINFO   

 PROGRAMS   *        TOTAL    FORCES    HF-SCF       INT   CCSD(T)    HF-SCF       INT
 CPU TIMES  *        41.23      3.85      0.03     32.21      3.87      0.24      0.89
 REAL TIME  *        51.16 SEC
 DISK USED  *       100.73 MB
 **********************************************************************************************************************************
 EE(1)            =     -138.261181723889 AU
 GRADX(1:3)       = [     -0.015042911445    0.020578813134   -0.005535901689] AU
 GRADY(1:3)       = [      0.002801998823    0.044244733361   -0.047046732184] AU
 GRADZ(1:3)       = [      0.000000000000    0.000000000000    0.000000000000] AU

 CCSD(T)-F12/cc-pVDZ-F12 energy=   -138.261181723889

     CCSD(T)-F12          HF-SCF     CCSD(T)-F12          HF-SCF
   -138.26118172   -137.80158595   -138.26118172   -137.80158595
 **********************************************************************************************************************************
 Molpro calculation terminated
