
 Primary working directories    : /scratch/mdavis/molpro_step_2022-08-17_18_40_37/molpro.eDDgMcu43l
 Secondary working directories  : /scratch/mdavis/molpro_step_2022-08-17_18_40_37/molpro.eDDgMcu43l
 Wavefunction directory         : /home/mdavis/f12eom_optimizer/tests/slurm/./
 Main file repository           : /scratch/mdavis/molpro_step_2022-08-17_18_40_37/molpro.eDDgMcu43l/

 id        : olemiss

 Nodes     nprocs
 node17       1

 Using customized tuning parameters: mindgm=1; mindgv=20; mindgc=4; mindgr=1; noblas=0; minvec=7
 default implementation of scratch files=df  


 Variables initialized (945), CPU time= 0.00 sec
 ***,part of geometry opt run
 memory, 2000.0, m;
 gthresh,energy=1.d-12,zero=1.d-22,oneint=1.d-22,twoint=1.d-22;
 gthresh,optgrad=1.d-8,optstep=1.d-8;
 nocompress;
 bohr;
 geometry={
      3
 Fragment 1
     H  -1.6062871975   1.6814806682   0.0000000000
     C   0.4929224134   1.1317946895   0.0000000000
     F   0.2347175187  -1.4929955077   0.0000000000
      }
 
 set,charge=0
 set,spin=0
 basis=vdz-f12
 hf,maxit=500;wf,charge=0,spin=0;accu,20;
 ccsd(t)-f12,maxit=250;wf,charge=0,spin=0;orbital,IGNORE_ERROR;
 ee(1)=energy(2)
 forces,varsav
 SHOW[f18.12],ee(1)
 SHOW[f18.12],GRADX
 SHOW[f18.12],GRADY
 SHOW[f18.12],GRADZ
 Commands  initialized (802), CPU time= 0.01 sec, 659 directives.
 Default parameters read. Elapsed time= 0.18 sec

 Checking input...
 Passed
1


                                         ***  PROGRAM SYSTEM MOLPRO  ***
                                       Copyright, TTI GmbH Stuttgart, 2015
                                    Version 2020.1 linked Oct  6 2020 12:04:11


 **********************************************************************************************************************************
 LABEL *   part of geometry opt run                                                      
  64 bit serial version                                                                  DATE: 17-Aug-22          TIME: 18:40:39  
 **********************************************************************************************************************************

 SHA1:             8c27446f6450a7499e38f603e13c65f775101d37
 **********************************************************************************************************************************

 Memory per process:      2000 MW
 Total memory per node:   2000 MW

 GA preallocation disabled
 GA check disabled

 Variable memory set to 2000.0 MW


 THRESHOLDS:

 ZERO    =  1.00D-22  ONEINT  =  1.00D-22  TWOINT  =  1.00D-22  PREFAC  =  1.00D-14  XXXXXX  =  1.00D-09  EORDER  =  1.00D-04
 ENERGY  =  1.00D-12  ETEST   =  0.00D+00  EDENS   =  0.00D+00  THRDEDEF=  1.00D-06  GRADIENT=  1.00D-05  STEP    =  1.00D-03
 ORBITAL =  1.00D-05  CIVEC   =  1.00D-05  COEFF   =  1.00D-04  PRINTCI =  5.00D-02  PUNCHCI =  9.90D+01  OPTGRAD =  3.00D-04
 OPTENERG=  1.00D-06  OPTSTEP =  3.00D-04  THRGRAD =  1.00D-10  COMPRESS=  1.00D-11  VARMIN  =  1.00D-07  VARMAX  =  1.00D-03
 THRDOUB =  0.00D+00  THRDIV  =  1.00D-05  THRRED  =  1.00D-07  THRPSP  =  1.00D+00  THRDC   =  1.00D-10  THRCS   =  1.00D-10
 THRNRM  =  1.00D-08  THREQ   =  0.00D+00  THRDE   =  1.00D+00  THRREF  =  1.00D-05  SPARFAC =  1.00D+00  THRDLP  =  1.00D-07
 THRDIA  =  1.00D-10  THRDLS  =  1.00D-07  THRGPS  =  0.00D+00  THRKEX  =  0.00D+00  THRDIS  =  2.00D-01  THRVAR  =  1.00D-10
 THRLOC  =  1.00D-06  THRGAP  =  1.00D-06  THRLOCT = -1.00D+00  THRGAPT = -1.00D+00  THRORB  =  1.00D-06  THRMLTP =  0.00D+00
 THRCPQCI=  1.00D-10  KEXTA   =  0.00D+00  THRCOARS=  0.00D+00  SYMTOL  =  1.00D-06  GRADTOL =  1.00D-06  THROVL  =  1.00D-08
 THRORTH =  1.00D-08  GRID    =  1.00D-06  GRIDMAX =  1.00D-03  DTMAX   =  0.00D+00  THROCCDE=  1.00D-01  THROCCDE=  1.00D-01
 THRPRINT=  2.50D-01


 THRESHOLDS:

 ZERO    =  1.00D-22  ONEINT  =  1.00D-22  TWOINT  =  1.00D-22  PREFAC  =  1.00D-14  XXXXXX  =  1.00D-09  EORDER  =  1.00D-04
 ENERGY  =  1.00D-12  ETEST   =  0.00D+00  EDENS   =  0.00D+00  THRDEDEF=  1.00D-06  GRADIENT=  1.00D-05  STEP    =  1.00D-03
 ORBITAL =  1.00D-05  CIVEC   =  1.00D-05  COEFF   =  1.00D-04  PRINTCI =  5.00D-02  PUNCHCI =  9.90D+01  OPTGRAD =  1.00D-08
 OPTENERG=  1.00D-06  OPTSTEP =  1.00D-08  THRGRAD =  1.00D-10  COMPRESS=  1.00D-11  VARMIN  =  1.00D-07  VARMAX  =  1.00D-03
 THRDOUB =  0.00D+00  THRDIV  =  1.00D-05  THRRED  =  1.00D-07  THRPSP  =  1.00D+00  THRDC   =  1.00D-10  THRCS   =  1.00D-10
 THRNRM  =  1.00D-08  THREQ   =  0.00D+00  THRDE   =  1.00D+00  THRREF  =  1.00D-05  SPARFAC =  1.00D+00  THRDLP  =  1.00D-07
 THRDIA  =  1.00D-10  THRDLS  =  1.00D-07  THRGPS  =  0.00D+00  THRKEX  =  0.00D+00  THRDIS  =  2.00D-01  THRVAR  =  1.00D-10
 THRLOC  =  1.00D-06  THRGAP  =  1.00D-06  THRLOCT = -1.00D+00  THRGAPT = -1.00D+00  THRORB  =  1.00D-06  THRMLTP =  0.00D+00
 THRCPQCI=  1.00D-10  KEXTA   =  0.00D+00  THRCOARS=  0.00D+00  SYMTOL  =  1.00D-06  GRADTOL =  1.00D-06  THROVL  =  1.00D-08
 THRORTH =  1.00D-08  GRID    =  1.00D-06  GRIDMAX =  1.00D-03  DTMAX   =  0.00D+00  THROCCDE=  1.00D-01  THROCCDE=  1.00D-01
 THRPRINT=  2.50D-01


 Input parameters for SORTINT:

 COMPRESS =    0.000000
 C_FINAL  =    1.000000
 DEBUG    =   -1.000000
 C_SORT1  =    0.000000
 C_SEWARD =    0.000000
 THRESH   =    0.000000
 IO       =  molpro                                                                                                                          
 SPRI     =    0.000000
 ZUNIT=BOHR


 Geometry recognized as XYZ

 SETTING CHARGE         =     0.00000000D+00                                  
 SETTING SPIN           =     0.00000000D+00                                  
 SETTING BASIS          =    VDZ-F12


 Recomputing integrals since basis changed


 Using spherical harmonics

 Library entry H      S cc-pVDZ-F12          selected for orbital group  1
 Library entry H      P cc-pVDZ-F12          selected for orbital group  1
 Library entry C      S cc-pVDZ-F12          selected for orbital group  2
 Library entry C      P cc-pVDZ-F12          selected for orbital group  2
 Library entry C      D cc-pVDZ-F12          selected for orbital group  2
 Library entry F      S cc-pVDZ-F12          selected for orbital group  3
 Library entry F      P cc-pVDZ-F12          selected for orbital group  3
 Library entry F      D cc-pVDZ-F12          selected for orbital group  3


 PROGRAM * SEWARD (Integral evaluation for generally contracted gaussian basis sets)     Author: Roland Lindh, 1990

 Geometry written to block  1 of record 700


 Point group  Cs  



 ATOMIC COORDINATES

 NR  ATOM    CHARGE       X              Y              Z

   1  H       1.00   -1.606287197    1.681480668    0.000000000
   2  C       6.00    0.492922413    1.131794689    0.000000000
   3  F       9.00    0.234717519   -1.492995508    0.000000000

 Bond lengths in Bohr (Angstrom)

 1-2  2.169985176  2-3  2.637459639
     ( 1.148306703)     ( 1.395683536)

 Bond angles

  1-2-3   99.05545630

 NUCLEAR CHARGE:                   16
 NUMBER OF PRIMITIVE AOS:          93
 NUMBER OF SYMMETRY AOS:           89
 NUMBER OF CONTRACTIONS:           69   (   49A'  +   20A"  )
 NUMBER OF INNER CORE ORBITALS:     0   (    0A'  +    0A"  )
 NUMBER OF OUTER CORE ORBITALS:     2   (    2A'  +    0A"  )
 NUMBER OF VALENCE ORBITALS:        9   (    7A'  +    2A"  )


 NUCLEAR REPULSION ENERGY   25.69176854

 Eigenvalues of metric

         1 0.212E-02 0.323E-02 0.328E-02 0.405E-02 0.438E-02 0.468E-02 0.477E-02 0.988E-02
         2 0.330E-02 0.469E-02 0.883E-01 0.984E-01 0.144E+00 0.191E+00 0.258E+00 0.394E+00


 Contracted 2-electron integrals neglected if value below      1.0D-22

        1426049. INTEGRALS WRITTEN OUT IN     349 BLOCKS ON RECORD 1290 OF FILE 1


 NUMBER OF SORTED TWO-ELECTRON INTEGRALS:    1544830.     BUFFER LENGTH:  32768
 NUMBER OF SEGMENTS:   1  SEGMENT LENGTH:    1544830      RECORD LENGTH: 524288

 Memory used in sort:       2.10 MW

 SORT1 READ     1426049. AND WROTE     1455925. INTEGRALS IN      5 RECORDS. CPU TIME:     0.02 SEC, REAL TIME:     0.04 SEC
 SORT2 READ     1455925. AND WROTE     1544830. INTEGRALS IN      1 RECORDS. CPU TIME:     0.06 SEC, REAL TIME:     0.06 SEC

 FILE SIZES:   FILE 1:    53.0 MBYTE,  FILE 4:    21.0 MBYTE,   TOTAL:     74.0 MBYTE

 OPERATOR DM      FOR CENTER  0  COORDINATES:    0.000000    0.000000    0.000000


 **********************************************************************************************************************************
 DATASETS  * FILE   NREC   LENGTH (MB)   RECORD NAMES
              1      19       42.18       500      610      700      900      950      970     1000      129      960     1100   
                                          VAR    BASINP    GEOM    SYMINP    ZMAT    AOBASIS   BASIS     P2S    ABASIS      S 
                                         1400     1410     1200     1210     1080     1600     1650     1300     1700   
                                           T        V       H0       H01     AOSYM     SMH    MOLCAS    ERIS     OPER   

 PROGRAMS   *        TOTAL       INT
 CPU TIMES  *         1.03      0.90
 REAL TIME  *         2.79 SEC
 DISK USED  *        74.32 MB
 **********************************************************************************************************************************


 PROGRAM * RHF-SCF (CLOSED SHELL)       Authors: W. Meyer, H.-J. Werner


 NUMBER OF ELECTRONS:       8+    8-
 CONVERGENCE THRESHOLDS:    1.00E-10 (Density)    1.00E-13 (Energy)
 MAX. NUMBER OF ITERATIONS:      500
 INTERPOLATION TYPE:            DIIS
 INTERPOLATION STEPS:              2 (START)      1 (STEP)
 LEVEL SHIFTS:                  0.00 (CLOSED)  0.00 (OPEN) 



 Orbital guess generated from atomic densities. Full valence occupancy:    9   2

 Molecular orbital dump at record        2100.2

 Initial occupancy:   7   1

 ITERATION    DDIFF          GRAD             ENERGY        2-EL.EN.            DIPOLE MOMENTS         DIIS   ORB.
    1      0.000D+00      0.000D+00      -137.76342794    155.101071   -0.63872    0.37056    0.00000    0    start
    2      0.000D+00      0.114D-01      -137.79323396    155.271424   -0.64944    0.13616    0.00000    1    diag
    3      0.171D-01      0.584D-02      -137.79995871    156.096284   -0.60504    0.31584    0.00000    2    diag
    4      0.558D-02      0.150D-02      -137.80044654    155.814541   -0.59876    0.30822    0.00000    3    diag
    5      0.127D-02      0.299D-03      -137.80051494    155.864550   -0.59754    0.31802    0.00000    4    diag
    6      0.483D-03      0.861D-04      -137.80052298    155.866623   -0.59668    0.31998    0.00000    5    diag
    7      0.172D-03      0.301D-04      -137.80052396    155.866720   -0.59676    0.31972    0.00000    6    diag
    8      0.754D-04      0.656D-05      -137.80052400    155.866534   -0.59676    0.31945    0.00000    7    diag
    9      0.167D-04      0.140D-05      -137.80052400    155.866540   -0.59678    0.31938    0.00000    8    diag
   10      0.314D-05      0.348D-06      -137.80052400    155.866528   -0.59678    0.31936    0.00000    9    orth
   11      0.950D-06      0.827D-07      -137.80052400    155.866526   -0.59677    0.31936    0.00000    9    diag
   12      0.225D-06      0.179D-07      -137.80052400    155.866526   -0.59677    0.31936    0.00000    9    diag
   13      0.427D-07      0.478D-08      -137.80052400    155.866526   -0.59677    0.31936    0.00000    9    diag
   14      0.120D-07      0.147D-08      -137.80052400    155.866526   -0.59677    0.31936    0.00000    9    diag
   15      0.268D-08      0.254D-09      -137.80052400    155.866526   -0.59677    0.31936    0.00000    9    diag
   16      0.388D-09      0.637D-10      -137.80052400    155.866526   -0.59677    0.31936    0.00000    9    diag
   17      0.129D-09      0.147D-10      -137.80052400    155.866526   -0.59677    0.31936    0.00000    9    diag
   18      0.359D-10      0.275D-11      -137.80052400    155.866526   -0.59677    0.31936    0.00000    0    orth

 Final occupancy:   7   1

 !RHF STATE  1.1 Energy              -137.800524000435
 Nuclear energy                        25.69176854
 One-electron energy                 -241.42555553
 Two-electron energy                   77.93326300
 Virial quotient                       -1.00210379
 !RHF STATE  1.1 Dipole moment         -0.59677372     0.31935633     0.00000000
 Dipole moment /Debye                  -1.51674815     0.81166965     0.00000000

 Orbital energies:

         1.1          2.1          3.1          4.1          5.1          6.1          7.1          8.1          9.1
    -26.339871   -11.393051    -1.635458    -0.912652    -0.730751    -0.651962    -0.431442     0.070590     0.081852

         1.2          2.2          3.2
     -0.684327     0.032884     0.117979


 HOMO      7.1    -0.431442 =     -11.7401eV
 LUMO      2.2     0.032884 =       0.8948eV
 LUMO-HOMO         0.464326 =      12.6350eV


 **********************************************************************************************************************************
 DATASETS  * FILE   NREC   LENGTH (MB)   RECORD NAMES
              1      19       42.18       500      610      700      900      950      970     1000      129      960     1100   
                                          VAR    BASINP    GEOM    SYMINP    ZMAT    AOBASIS   BASIS     P2S    ABASIS      S 
                                         1400     1410     1200     1210     1080     1600     1650     1300     1700   
                                           T        V       H0       H01     AOSYM     SMH    MOLCAS    ERIS     OPER   

              2       4        2.84       700     1000      520     2100   
                                         GEOM     BASIS   MCVARS     RHF  

 PROGRAMS   *        TOTAL    HF-SCF       INT
 CPU TIMES  *         1.29      0.26      0.90
 REAL TIME  *         3.61 SEC
 DISK USED  *        74.32 MB
 **********************************************************************************************************************************


 PROGRAM * CCSD (Closed-shell coupled cluster)     Authors: C. Hampel, H.-J. Werner, 1991, M. Deegan, P.J. Knowles, 1992

                                  CCSD-F12 implementation by  H.-J. Werner, 2007

                   Density fitting integral evaluation by F.R. Manby, 2003,2007, G. Knizia, 2010


 Basis set AUG-CC-PVDZ/JKFIT generated.  Number of basis functions:   204 
 Basis set CC-PVDZ-F12/OPTRI generated.  Number of basis functions:   154 
 Basis set AUG-CC-PVDZ/MP2FIT generated. Number of basis functions:   167 

 Convergence thresholds:  THRVAR = 1.00D-16  THRDEN = 1.00D-12

 CCSD(T)     terms to be evaluated (factor= 1.000)


 Number of core orbitals:           2 (   2   0 )
 Number of closed-shell orbitals:   6 (   5   1 )
 Number of external orbitals:      61 (  42  19 )

 Molecular orbitals read from record     2100.2  Type=RHF/CANONICAL (state 1.1)

 MP2-F12 correlation treatment (H.-J. Werner, 2006)
 ==================================================

 Using MP2-F12 with ansatz 3C(FIX)

 Using projected zeroth-order Hamiltonian (+Z)

 FOCKRIB=T FOCKRIC=T FOCKRIP=T CABSP=T CABSA=T CABSK=T CABSF=T GBC=F EBC=F DMAT=T NOFIK=T NOPAO=1 SOLVE=-1  USEPAO=0
 EXCH_A= T EXCH_B= F EXCH_C= F EXCH_P= F

 Geminal basis:    OPTFULL  GEM_TYPE=SLATER  BETA=1.0  NGEM=6

 Optimizing Gaussian exponents for each gem_beta

 Geminal optimization for beta= 1.0000
 Weight function:   m=0, omega= 1.4646

 Augmented Hessian optimization of geminal fit. Trust ratio= 0.40000
 Convergence reached after   2 iterations. Final gradient= 8.66D-16, Step= 4.23D-06, Delta= 1.28D-09

 Alpha:                 0.19532     0.81920     2.85917     9.50073    35.69989   197.79328
 Coeff:                 0.27070     0.30552     0.18297     0.10986     0.06810     0.04224


 Symmetry turned off. Reference energy:       -137.800524000435

 All pairs explicitly correlated. Number of r12-pairs:           21

 Excluding core orbitals from MO domains

 AO(A)-basis ORBITAL           loaded. Number of functions:      69
 RI(R)-basis CC-PVDZ-F12/OPTRI loaded. Number of functions:     154
 DF-basis AUG-CC-PVDZ/JKFIT    loaded. Number of functions:     204

 Screening thresholds:   THRAO=  1.00D-10  THRMO=  1.00D-10  THRPROD=  1.00D-10
                         THRSW=  1.00D-07  THROV=  1.00D-12  THRAOF12= 1.00D-08

 CPU time for Fock operators                      0.90 sec

 Construction of ABS:
 Smallest eigenvalue of S          3.98E-03  (threshold= 1.00E-08)
 Ratio eigmin/eigmax               8.50E-04  (threshold= 1.00E-09)
 Smallest eigenvalue of S kept     3.98E-03  (threshold= 3.98E-03, 0 functions deleted, 154 kept)

 Construction of CABS:
 Smallest eigenvalue of S          1.13E-05  (threshold= 1.00E-08)
 Ratio eigmin/eigmax               1.13E-05  (threshold= 1.00E-09)
 Smallest eigenvalue of S kept     1.13E-05  (threshold= 1.13E-05, 0 functions deleted, 154 kept)

 CPU time for CABS singles                        0.01 sec

 CABS-singles contribution of  -0.00570937 patched into reference energy.
 New reference energy        -137.80623337

 AO(A)-basis ORBITAL           loaded. Number of functions:      69
 RI(R)-basis CC-PVDZ-F12/OPTRI loaded. Number of functions:     154
 DF-basis AUG-CC-PVDZ/MP2FIT   loaded. Number of functions:     167

 Screening thresholds:   THRAO=  1.00D-10  THRMO=  1.00D-10  THRPROD=  1.00D-10
                         THRSW=  1.00D-07  THROV=  1.00D-12  THRAOF12= 1.00D-08

 CPU time for 3-index integral evaluation         0.40 sec
 CPU time for first  half transformation          0.03 sec ( 5065.5 MFLOP/sec)
 CPU time for fitting                             0.01 sec ( 8266.3 MFLOP/sec)
 CPU time for assembly                            0.04 sec (19371.9 MFLOP/sec)
 CPU time for tranop_f12                          0.03 sec (34833.1 MFLOP/sec)
 CPU time for f12 integrals (total)               1.20 sec, Elapsed time:      1.33 sec
 CPU time for f12 matrices (total)                0.01 sec, Elapsed time:      0.03 sec

 Diagonal F12 approximation with fixed coefficients:  TSING= 0.500,  TTRIP= 0.250 (scaled by -1/beta)

 DF-MP2-F12 energy corrections:
 ==============================
 Approx.                                    Singlet             Triplet             Total
 DF-MP2-F12/3*C(DX,FIX)                -0.077579112975     -0.015948611845     -0.093527724820
 DF-MP2-F12/3*C(FIX)                   -0.068682131127     -0.015065670371     -0.083747801497
 DF-MP2-F12/3C(FIX)                    -0.069335623252     -0.015817709052     -0.085153332304

 DF-MP2-F12 correlation energies:
 ================================
 Approx.                                    Singlet             Triplet             Ecorr            Total Energy
 DF-MP2                                -0.227037940043     -0.132874802684     -0.359912742727   -138.166146115672
 DF-MP2-F12/3*C(DX,FIX)                -0.304617053018     -0.148823414528     -0.453440467547   -138.259673840492
 DF-MP2-F12/3*C(FIX)                   -0.295720071170     -0.147940473054     -0.443660544224   -138.249893917170
 DF-MP2-F12/3C(FIX)                    -0.296373563295     -0.148692511736     -0.445066075031   -138.251299447977

 SCS-DF-MP2 energies (F_SING= 1.20000  F_TRIP= 0.62222  F_PARALLEL= 0.33333):
 ============================================================================
 SCS-DF-MP2                            -0.355123183055   -138.161356556000
 SCS-DF-MP2-F12/3*C(DX,FIX)            -0.458141699328   -138.264375072274
 SCS-DF-MP2-F12/3*C(FIX)               -0.446915935304   -138.253149308250
 SCS-DF-MP2-F12/3C(FIX)                -0.448168061034   -138.254401433980

 Symmetry restored.
 Symmetry transformation completed.

 Number of N-1 electron functions:               6
 Number of N-2 electron functions:              21
 Number of singly external CSFs:               229
 Number of doubly external CSFs:             35788
 Total number of CSFs:                       36018

 Length of J-op  integral file:              15.24 MB
 Length of K-op  integral file:              18.55 MB
 Length of 3-ext integral record:             0.00 MB

 Memory could be reduced to 1.16 Mwords without degradation in triples

 Integral transformation finished. Total CPU:   0.03 sec, npass=  1  Memory used:   0.52 MW

 Reference energy:                   -137.80623337

 Adding F12 terms to K(Cij), methodcc=6,  factor= 1.0

 ITER.      SQ.NORM     CORR.ENERGY   TOTAL ENERGY   ENERGY CHANGE        DEN1      VAR(S)    VAR(P)  DIIS     TIME  TIME/IT
   1      1.09673007    -0.36620780  -138.17244117    -0.00619392     0.00696116  0.34D-02  0.26D-02  1  1     2.26     0.06
   2      1.10730710    -0.36682949  -138.17306286    -0.00062169    -0.01010562  0.97D-04  0.62D-03  2  2     2.31     0.06
   3      1.11480083    -0.36778672  -138.17402009    -0.00095723    -0.00277168  0.14D-03  0.90D-04  3  3     2.36     0.06
   4      1.11930814    -0.36796337  -138.17419674    -0.00017665    -0.00151067  0.15D-04  0.25D-04  4  4     2.42     0.06
   5      1.12201577    -0.36801684  -138.17425022    -0.00005348    -0.00048809  0.22D-05  0.40D-05  5  5     2.47     0.07
   6      1.12298150    -0.36800632  -138.17423970     0.00001052    -0.00006375  0.11D-06  0.61D-06  6  6     2.52     0.07
   7      1.12317717    -0.36800645  -138.17423982    -0.00000012    -0.00002415  0.37D-07  0.12D-06  6  4     2.58     0.07
   8      1.12319061    -0.36800692  -138.17424029    -0.00000047     0.00000609  0.99D-08  0.19D-07  6  1     2.63     0.07
   9      1.12319175    -0.36800774  -138.17424111    -0.00000082     0.00000128  0.30D-08  0.25D-08  6  2     2.68     0.07
  10      1.12318930    -0.36800815  -138.17424152    -0.00000041     0.00000018  0.51D-09  0.45D-09  6  3     2.73     0.07
  11      1.12318801    -0.36800824  -138.17424162    -0.00000009     0.00000015  0.17D-09  0.69D-10  6  5     2.79     0.07
  12      1.12318687    -0.36800838  -138.17424175    -0.00000014     0.00000020  0.22D-10  0.16D-10  6  6     2.84     0.07
  13      1.12318568    -0.36800843  -138.17424180    -0.00000005     0.00000014  0.53D-11  0.22D-11  6  1     2.89     0.07
  14      1.12318507    -0.36800846  -138.17424184    -0.00000004     0.00000013  0.35D-12  0.37D-12  6  4     2.94     0.07
  15      1.12318489    -0.36800847  -138.17424184    -0.00000001     0.00000002  0.77D-13  0.94D-13  6  2     2.99     0.07
  16      1.12318480    -0.36800847  -138.17424185    -0.00000000     0.00000002  0.77D-14  0.16D-13  6  3     3.05     0.07
  17      1.12318477    -0.36800848  -138.17424185    -0.00000000     0.00000000  0.14D-14  0.19D-14  6  5     3.10     0.07
  18      1.12318477    -0.36800848  -138.17424185     0.00000000    -0.00000000  0.41D-15  0.37D-15  6  6     3.16     0.07
  19      1.12318477    -0.36800847  -138.17424185     0.00000000    -0.00000000  0.16D-15  0.92D-16  6  1     3.21     0.07
  20      1.12318477    -0.36800847  -138.17424185     0.00000000    -0.00000000  0.25D-16  0.22D-16  6  4     3.25     0.07
  21      1.12318477    -0.36800847  -138.17424185     0.00000000     0.00000000  0.84D-17  0.42D-17  6  2     3.30     0.07
  22      1.12318477    -0.36800847  -138.17424185     0.00000000    -0.00000000  0.61D-18  0.78D-18  6  5     3.36     0.07
  23      1.12318477    -0.36800847  -138.17424185     0.00000000     0.00000000  0.11D-18  0.39D-19  6  3     3.40     0.07
  24      1.12318477    -0.36800847  -138.17424185     0.00000000    -0.00000000  0.34D-19  0.93D-20  6  6     3.46     0.07
  25      1.12318477    -0.36800847  -138.17424185     0.00000000    -0.00000000  0.49D-20  0.20D-20  6  1     3.51     0.07
  26      1.12318477    -0.36800847  -138.17424185     0.00000000    -0.00000000  0.12D-20  0.29D-21  6  4     3.55     0.07
  27      1.12318477    -0.36800847  -138.17424185    -0.00000000     0.00000000  0.13D-21  0.53D-22  6  2     3.59     0.07

 Norm of t1 vector:      0.09250595      S-energy:     0.00000000      T1 diagnostic:  0.01888270
                                                                       D1 diagnostic:  0.05659007

 Doubles amplitudes (print threshold =  0.500E-01):

         I         J         SYM. A    SYM. B    A         B      T(IJ, AB)

         5         5         2         2         1         1     -0.05983627

 Adding energy correction from Wij-K(Fij), methodcc=6  factor= 1.0

  CCSD correlation energy              -0.368008474795
  MP2-F12 correction (uncoupled)       -0.080529969520
  C*T doubles correction               -0.002587751762
  f12b correction                       0.010334549598


 Total CPU time for triples:      0.28 sec


 RESULTS
 =======

  Reference energy                   -137.800524000435
  F12 singles correction               -0.005709372511

 F12 singles corrections added to reference energy

  New reference energy               -137.806233372946

  F12a singlet correction              -0.067982282675
  F12a triplet correction              -0.015135438607
  F12a total correction                -0.083117721282

 F12a corrections for ansatz F12/3C(FIX) added to CCSD energy

  CCSD-F12a singlet pair energy        -0.317332047443
  CCSD-F12a triplet pair energy        -0.133794148635
  CCSD-F12a correlation energy         -0.451126196078

  Triples (T) contribution             -0.013395760516
  Total correlation energy             -0.464521956594

  CCSD-F12a total energy             -138.257359569023
  CCSD[T]-F12a energy                -138.272183791481
  CCSD-T-F12a energy                 -138.270270101014
 !CCSD(T)-F12a total energy          -138.270755329540

 F12b corrections for ansatz F12/3C(FIX) added to CCSD(T)-F12a energy

  CCSD-F12b singlet pair energy        -0.307971968230
  CCSD-F12b triplet pair energy        -0.132819678250
  CCSD-F12b correlation energy         -0.440791646480

  Triples (T) contribution             -0.013395760516
  Total correlation energy             -0.454187406996

  CCSD-F12b total energy             -138.247025019425
  CCSD[T]-F12b energy                -138.261849241883
  CCSD-T-F12b energy                 -138.259935551416
 !CCSD(T)-F12b total energy          -138.260420779941

 Timing summary (sec):

 STEP                 CPU(USER)    SYS     CPU(TOT)    WALL
 Transformation          0.03      0.02      0.05      0.05
 CCSD iterations         1.41      0.20      1.61      1.80
 Triples                 0.28      0.01      0.29      0.28
 MP2-F12                 2.15      0.18      2.33      3.40
 F12b energy             0.03      0.00      0.03      0.04

 Program statistics:

 Available memory in ccsd:              1999999744
 Min. memory needed in ccsd:                136839
 Max. memory used in ccsd:                  163083
 Max. memory used in cckext:                208330 (28 integral passes)



 **********************************************************************************************************************************
 DATASETS  * FILE   NREC   LENGTH (MB)   RECORD NAMES
              1      20       45.77       500      610      700      900      950      970     1000      129      960     1100   
                                          VAR    BASINP    GEOM    SYMINP    ZMAT    AOBASIS   BASIS     P2S    ABASIS      S 
                                         1400     1410     1200     1210     1080     1600     1650     1300     1700     1380   
                                           T        V       H0       H01     AOSYM     SMH    MOLCAS    ERIS     OPER     JKOP   

              2       6        2.90       700     1000      520     2100     7360     7350   
                                         GEOM     BASIS   MCVARS     RHF    F12ABS    EF12   

 PROGRAMS   *        TOTAL   CCSD(T)    HF-SCF       INT
 CPU TIMES  *         5.23      3.94      0.26      0.90
 REAL TIME  *         9.23 SEC
 DISK USED  *        97.74 MB
 **********************************************************************************************************************************
 SETTING EE(1)          =      -138.26042078  AU                              


 Computing numerical gradient using default procedure for command CCSD(T)-F12

 *** Long output written to logfile /home/mdavis/f12eom_optimizer/tests/slurm/molpro_step.log ***


 Running default procedure: HF-SCF000  CCSD(T)-F12


 Generated   3 symmetrical displacements

 Numerical gradient for CCSD(T)-F12

 Total Energy          -138.26042078  Dipole moments:    0.000000    0.000000    0.000000

 Atom          dE/dx               dE/dy               dE/dz                  d2E/dx2             d2E/dy2             d2E/dz2
   1        -0.015571155         0.002524073         0.000000000            0.000000000         0.000000000         0.000000000
   2         0.021754875         0.047708435         0.000000000            0.000000000         0.000000000         0.000000000
   3        -0.006183720        -0.050232508         0.000000000            0.000000000         0.000000000         0.000000000

 Recomputing wavefunction at initial geometry


 **********************************************************************************************************************************
 DATASETS  * FILE   NREC   LENGTH (MB)   RECORD NAMES
              1      21       45.99       500      610      700      900      701      950      970     1000      129      960   
                                          VAR    BASINP    GEOM    SYMINP    GEOM     ZMAT    AOBASIS   BASIS     P2S    ABASIS    
                                         1100     1400     1410     1200     1210     1080     1600     1650     1300     1700   
                                           S        T        V       H0       H01     AOSYM     SMH    MOLCAS    ERIS     OPER   
                                         1380   
                                         JKOP   

              2       8        3.12       700     1000      520     2100     7360     7350      701     5600   
                                         GEOM     BASIS   MCVARS     RHF    F12ABS    EF12     GEOM     GINFO   

 PROGRAMS   *        TOTAL    FORCES    HF-SCF       INT   CCSD(T)    HF-SCF       INT
 CPU TIMES  *        41.48      3.98      0.03     32.23      3.94      0.26      0.90
 REAL TIME  *        53.15 SEC
 DISK USED  *       100.73 MB
 **********************************************************************************************************************************
 EE(1)            =     -138.260420779941 AU
 GRADX(1:3)       = [     -0.015571155494    0.021754875063   -0.006183719568] AU
 GRADY(1:3)       = [      0.002524073288    0.047708435189   -0.050232508477] AU
 GRADZ(1:3)       = [      0.000000000000    0.000000000000    0.000000000000] AU

 CCSD(T)-F12/cc-pVDZ-F12 energy=   -138.260420779941

     CCSD(T)-F12          HF-SCF     CCSD(T)-F12          HF-SCF
   -138.26042078   -137.80052400   -138.26042078   -137.80052400
 **********************************************************************************************************************************
 Molpro calculation terminated
