
 Primary working directories    : /scratch/mdavis/molpro_step_2022-08-18_16_47_30/molpro.7q5uHbOskD
 Secondary working directories  : /scratch/mdavis/molpro_step_2022-08-18_16_47_30/molpro.7q5uHbOskD
 Wavefunction directory         : /home/mdavis/f12eom_optimizer/tests/slurm/./
 Main file repository           : /scratch/mdavis/molpro_step_2022-08-18_16_47_30/molpro.7q5uHbOskD/

 id        : olemiss

 Nodes     nprocs
 node18       1

 Using customized tuning parameters: mindgm=1; mindgv=20; mindgc=4; mindgr=1; noblas=0; minvec=7
 default implementation of scratch files=df  


 Variables initialized (945), CPU time= 0.01 sec
 ***,part of geometry opt run
 memory, 2000.0, m;
 gthresh,energy=1.d-12,zero=1.d-22,oneint=1.d-22,twoint=1.d-22;
 gthresh,optgrad=1.d-8,optstep=1.d-8;
 nocompress;
 ang;
 geometry={
      3
 Fragment 1
     H  -0.7550992090   1.4318040609   0.0000000000
     C   0.1021687311   0.7662588837   0.0000000000
     F  -0.0334575780  -0.5399869554   0.0000000000
      }
 
 set,charge=0
 set,spin=0
 basis=vdz-f12
 hf,maxit=500;wf,charge=0,spin=0;accu,20;
 ccsd(t)-f12,maxit=250;wf,charge=0,spin=0;orbital,IGNORE_ERROR;
 ee(1)=energy(2)
 forces,varsav
 SHOW[f18.12],ee(1)
 SHOW[f18.12],GRADX
 SHOW[f18.12],GRADY
 SHOW[f18.12],GRADZ
 Commands  initialized (802), CPU time= 0.01 sec, 659 directives.
 Default parameters read. Elapsed time= 0.14 sec

 Checking input...
 Passed
1


                                         ***  PROGRAM SYSTEM MOLPRO  ***
                                       Copyright, TTI GmbH Stuttgart, 2015
                                    Version 2020.1 linked Oct  6 2020 12:04:11


 **********************************************************************************************************************************
 LABEL *   part of geometry opt run                                                      
  64 bit serial version                                                                  DATE: 18-Aug-22          TIME: 16:47:31  
 **********************************************************************************************************************************

 SHA1:             8c27446f6450a7499e38f603e13c65f775101d37
 **********************************************************************************************************************************

 Memory per process:      2000 MW
 Total memory per node:   2000 MW

 GA preallocation disabled
 GA check disabled

 Variable memory set to 2000.0 MW


 THRESHOLDS:

 ZERO    =  1.00D-22  ONEINT  =  1.00D-22  TWOINT  =  1.00D-22  PREFAC  =  1.00D-14  XXXXXX  =  1.00D-09  EORDER  =  1.00D-04
 ENERGY  =  1.00D-12  ETEST   =  0.00D+00  EDENS   =  0.00D+00  THRDEDEF=  1.00D-06  GRADIENT=  1.00D-05  STEP    =  1.00D-03
 ORBITAL =  1.00D-05  CIVEC   =  1.00D-05  COEFF   =  1.00D-04  PRINTCI =  5.00D-02  PUNCHCI =  9.90D+01  OPTGRAD =  3.00D-04
 OPTENERG=  1.00D-06  OPTSTEP =  3.00D-04  THRGRAD =  1.00D-10  COMPRESS=  1.00D-11  VARMIN  =  1.00D-07  VARMAX  =  1.00D-03
 THRDOUB =  0.00D+00  THRDIV  =  1.00D-05  THRRED  =  1.00D-07  THRPSP  =  1.00D+00  THRDC   =  1.00D-10  THRCS   =  1.00D-10
 THRNRM  =  1.00D-08  THREQ   =  0.00D+00  THRDE   =  1.00D+00  THRREF  =  1.00D-05  SPARFAC =  1.00D+00  THRDLP  =  1.00D-07
 THRDIA  =  1.00D-10  THRDLS  =  1.00D-07  THRGPS  =  0.00D+00  THRKEX  =  0.00D+00  THRDIS  =  2.00D-01  THRVAR  =  1.00D-10
 THRLOC  =  1.00D-06  THRGAP  =  1.00D-06  THRLOCT = -1.00D+00  THRGAPT = -1.00D+00  THRORB  =  1.00D-06  THRMLTP =  0.00D+00
 THRCPQCI=  1.00D-10  KEXTA   =  0.00D+00  THRCOARS=  0.00D+00  SYMTOL  =  1.00D-06  GRADTOL =  1.00D-06  THROVL  =  1.00D-08
 THRORTH =  1.00D-08  GRID    =  1.00D-06  GRIDMAX =  1.00D-03  DTMAX   =  0.00D+00  THROCCDE=  1.00D-01  THROCCDE=  1.00D-01
 THRPRINT=  2.50D-01


 THRESHOLDS:

 ZERO    =  1.00D-22  ONEINT  =  1.00D-22  TWOINT  =  1.00D-22  PREFAC  =  1.00D-14  XXXXXX  =  1.00D-09  EORDER  =  1.00D-04
 ENERGY  =  1.00D-12  ETEST   =  0.00D+00  EDENS   =  0.00D+00  THRDEDEF=  1.00D-06  GRADIENT=  1.00D-05  STEP    =  1.00D-03
 ORBITAL =  1.00D-05  CIVEC   =  1.00D-05  COEFF   =  1.00D-04  PRINTCI =  5.00D-02  PUNCHCI =  9.90D+01  OPTGRAD =  1.00D-08
 OPTENERG=  1.00D-06  OPTSTEP =  1.00D-08  THRGRAD =  1.00D-10  COMPRESS=  1.00D-11  VARMIN  =  1.00D-07  VARMAX  =  1.00D-03
 THRDOUB =  0.00D+00  THRDIV  =  1.00D-05  THRRED  =  1.00D-07  THRPSP  =  1.00D+00  THRDC   =  1.00D-10  THRCS   =  1.00D-10
 THRNRM  =  1.00D-08  THREQ   =  0.00D+00  THRDE   =  1.00D+00  THRREF  =  1.00D-05  SPARFAC =  1.00D+00  THRDLP  =  1.00D-07
 THRDIA  =  1.00D-10  THRDLS  =  1.00D-07  THRGPS  =  0.00D+00  THRKEX  =  0.00D+00  THRDIS  =  2.00D-01  THRVAR  =  1.00D-10
 THRLOC  =  1.00D-06  THRGAP  =  1.00D-06  THRLOCT = -1.00D+00  THRGAPT = -1.00D+00  THRORB  =  1.00D-06  THRMLTP =  0.00D+00
 THRCPQCI=  1.00D-10  KEXTA   =  0.00D+00  THRCOARS=  0.00D+00  SYMTOL  =  1.00D-06  GRADTOL =  1.00D-06  THROVL  =  1.00D-08
 THRORTH =  1.00D-08  GRID    =  1.00D-06  GRIDMAX =  1.00D-03  DTMAX   =  0.00D+00  THROCCDE=  1.00D-01  THROCCDE=  1.00D-01
 THRPRINT=  2.50D-01


 Input parameters for SORTINT:

 COMPRESS =    0.000000
 C_FINAL  =    1.000000
 DEBUG    =   -1.000000
 C_SORT1  =    0.000000
 C_SEWARD =    0.000000
 THRESH   =    0.000000
 IO       =  molpro                                                                                                                          
 SPRI     =    0.000000
 ZUNIT=ANG


 Geometry recognized as XYZ

 SETTING CHARGE         =     0.00000000D+00                                  
 SETTING SPIN           =     0.00000000D+00                                  
 SETTING BASIS          =    VDZ-F12


 Recomputing integrals since basis changed


 Using spherical harmonics

 Library entry H      S cc-pVDZ-F12          selected for orbital group  1
 Library entry H      P cc-pVDZ-F12          selected for orbital group  1
 Library entry C      S cc-pVDZ-F12          selected for orbital group  2
 Library entry C      P cc-pVDZ-F12          selected for orbital group  2
 Library entry C      D cc-pVDZ-F12          selected for orbital group  2
 Library entry F      S cc-pVDZ-F12          selected for orbital group  3
 Library entry F      P cc-pVDZ-F12          selected for orbital group  3
 Library entry F      D cc-pVDZ-F12          selected for orbital group  3


 PROGRAM * SEWARD (Integral evaluation for generally contracted gaussian basis sets)     Author: Roland Lindh, 1990

 Geometry written to block  1 of record 700


 Point group  Cs  



 ATOMIC COORDINATES

 NR  ATOM    CHARGE       X              Y              Z

   1  H       1.00   -1.426930702    2.705717539    0.000000000
   2  C       6.00    0.193070920    1.448019431    0.000000000
   3  F       9.00   -0.063225659   -1.020427457    0.000000000

 Bond lengths in Bohr (Angstrom)

 1-2  2.050904627  2-3  2.481716739
     ( 1.085291990)     ( 1.313267942)

 Bond angles

  1-2-3  121.89646655

 NUCLEAR CHARGE:                   16
 NUMBER OF PRIMITIVE AOS:          93
 NUMBER OF SYMMETRY AOS:           89
 NUMBER OF CONTRACTIONS:           69   (   49A'  +   20A"  )
 NUMBER OF INNER CORE ORBITALS:     0   (    0A'  +    0A"  )
 NUMBER OF OUTER CORE ORBITALS:     2   (    2A'  +    0A"  )
 NUMBER OF VALENCE ORBITALS:        9   (    7A'  +    2A"  )


 NUCLEAR REPULSION ENERGY   26.95289931

 Eigenvalues of metric

         1 0.168E-02 0.305E-02 0.326E-02 0.341E-02 0.346E-02 0.468E-02 0.470E-02 0.895E-02
         2 0.330E-02 0.468E-02 0.813E-01 0.934E-01 0.130E+00 0.165E+00 0.250E+00 0.385E+00


 Contracted 2-electron integrals neglected if value below      1.0D-22

        1426049. INTEGRALS WRITTEN OUT IN     349 BLOCKS ON RECORD 1290 OF FILE 1


 NUMBER OF SORTED TWO-ELECTRON INTEGRALS:    1544830.     BUFFER LENGTH:  32768
 NUMBER OF SEGMENTS:   1  SEGMENT LENGTH:    1544830      RECORD LENGTH: 524288

 Memory used in sort:       2.10 MW

 SORT1 READ     1426049. AND WROTE     1455925. INTEGRALS IN      5 RECORDS. CPU TIME:     0.02 SEC, REAL TIME:     0.04 SEC
 SORT2 READ     1455925. AND WROTE     1544830. INTEGRALS IN      1 RECORDS. CPU TIME:     0.05 SEC, REAL TIME:     0.06 SEC

 FILE SIZES:   FILE 1:    53.0 MBYTE,  FILE 4:    21.0 MBYTE,   TOTAL:     74.0 MBYTE

 OPERATOR DM      FOR CENTER  0  COORDINATES:    0.000000    0.000000    0.000000


 **********************************************************************************************************************************
 DATASETS  * FILE   NREC   LENGTH (MB)   RECORD NAMES
              1      19       42.18       500      610      700      900      950      970     1000      129      960     1100   
                                          VAR    BASINP    GEOM    SYMINP    ZMAT    AOBASIS   BASIS     P2S    ABASIS      S 
                                         1400     1410     1200     1210     1080     1600     1650     1300     1700   
                                           T        V       H0       H01     AOSYM     SMH    MOLCAS    ERIS     OPER   

 PROGRAMS   *        TOTAL       INT
 CPU TIMES  *         1.04      0.90
 REAL TIME  *         2.70 SEC
 DISK USED  *        74.32 MB
 **********************************************************************************************************************************


 PROGRAM * RHF-SCF (CLOSED SHELL)       Authors: W. Meyer, H.-J. Werner


 NUMBER OF ELECTRONS:       8+    8-
 CONVERGENCE THRESHOLDS:    1.00E-10 (Density)    1.00E-13 (Energy)
 MAX. NUMBER OF ITERATIONS:      500
 INTERPOLATION TYPE:            DIIS
 INTERPOLATION STEPS:              2 (START)      1 (STEP)
 LEVEL SHIFTS:                  0.00 (CLOSED)  0.00 (OPEN) 



 Orbital guess generated from atomic densities. Full valence occupancy:    9   2

 Molecular orbital dump at record        2100.2

 Initial occupancy:   7   1

 ITERATION    DDIFF          GRAD             ENERGY        2-EL.EN.            DIPOLE MOMENTS         DIIS   ORB.
    1      0.000D+00      0.000D+00      -137.76198200    156.687153   -0.84899    0.17918    0.00000    0    start
    2      0.000D+00      0.104D-01      -137.78909398    157.678236   -0.74023    0.12884    0.00000    1    diag
    3      0.146D-01      0.386D-02      -137.79236451    158.001767   -0.72286    0.23842    0.00000    2    diag
    4      0.426D-02      0.128D-02      -137.79275376    157.782472   -0.71952    0.23055    0.00000    3    diag
    5      0.122D-02      0.331D-03      -137.79282151    157.848147   -0.71821    0.24153    0.00000    4    diag
    6      0.509D-03      0.907D-04      -137.79282948    157.847502   -0.71751    0.24367    0.00000    5    diag
    7      0.201D-03      0.279D-04      -137.79283019    157.847848   -0.71757    0.24379    0.00000    6    diag
    8      0.686D-04      0.540D-05      -137.79283021    157.847635   -0.71755    0.24371    0.00000    7    diag
    9      0.117D-04      0.102D-05      -137.79283021    157.847666   -0.71756    0.24368    0.00000    8    diag
   10      0.252D-05      0.212D-06      -137.79283021    157.847667   -0.71756    0.24368    0.00000    9    orth
   11      0.624D-06      0.454D-07      -137.79283021    157.847666   -0.71756    0.24368    0.00000    9    diag
   12      0.134D-06      0.100D-07      -137.79283021    157.847666   -0.71756    0.24368    0.00000    9    diag
   13      0.255D-07      0.314D-08      -137.79283021    157.847666   -0.71756    0.24368    0.00000    9    diag
   14      0.877D-08      0.101D-08      -137.79283021    157.847666   -0.71756    0.24368    0.00000    9    diag
   15      0.297D-08      0.258D-09      -137.79283021    157.847666   -0.71756    0.24368    0.00000    9    diag
   16      0.364D-09      0.694D-10      -137.79283021    157.847666   -0.71756    0.24368    0.00000    9    diag
   17      0.132D-09      0.121D-10      -137.79283021    157.847666   -0.71756    0.24368    0.00000    9    diag
   18      0.255D-10      0.299D-11      -137.79283021    157.847666   -0.71756    0.24368    0.00000    0    orth

 Final occupancy:   7   1

 !RHF STATE  1.1 Energy              -137.792830211052
 Nuclear energy                        26.95289931
 One-electron energy                 -243.66956256
 Two-electron energy                   78.92383304
 Virial quotient                       -1.00094412
 !RHF STATE  1.1 Dipole moment         -0.71756311     0.24367602     0.00000000
 Dipole moment /Debye                  -1.82374405     0.61932209     0.00000000

 Orbital energies:

         1.1          2.1          3.1          4.1          5.1          6.1          7.1          8.1          9.1
    -26.366175   -11.365091    -1.681275    -0.927568    -0.768034    -0.702792    -0.383502     0.067170     0.080859

         1.2          2.2          3.2
     -0.716511     0.041935     0.124527


 HOMO      7.1    -0.383502 =     -10.4356eV
 LUMO      2.2     0.041935 =       1.1411eV
 LUMO-HOMO         0.425437 =      11.5767eV


 **********************************************************************************************************************************
 DATASETS  * FILE   NREC   LENGTH (MB)   RECORD NAMES
              1      19       42.18       500      610      700      900      950      970     1000      129      960     1100   
                                          VAR    BASINP    GEOM    SYMINP    ZMAT    AOBASIS   BASIS     P2S    ABASIS      S 
                                         1400     1410     1200     1210     1080     1600     1650     1300     1700   
                                           T        V       H0       H01     AOSYM     SMH    MOLCAS    ERIS     OPER   

              2       4        2.84       700     1000      520     2100   
                                         GEOM     BASIS   MCVARS     RHF  

 PROGRAMS   *        TOTAL    HF-SCF       INT
 CPU TIMES  *         1.32      0.28      0.90
 REAL TIME  *         3.06 SEC
 DISK USED  *        74.32 MB
 **********************************************************************************************************************************


 PROGRAM * CCSD (Closed-shell coupled cluster)     Authors: C. Hampel, H.-J. Werner, 1991, M. Deegan, P.J. Knowles, 1992

                                  CCSD-F12 implementation by  H.-J. Werner, 2007

                   Density fitting integral evaluation by F.R. Manby, 2003,2007, G. Knizia, 2010


 Basis set AUG-CC-PVDZ/JKFIT generated.  Number of basis functions:   204 
 Basis set CC-PVDZ-F12/OPTRI generated.  Number of basis functions:   154 
 Basis set AUG-CC-PVDZ/MP2FIT generated. Number of basis functions:   167 

 Convergence thresholds:  THRVAR = 1.00D-16  THRDEN = 1.00D-12

 CCSD(T)     terms to be evaluated (factor= 1.000)


 Number of core orbitals:           2 (   2   0 )
 Number of closed-shell orbitals:   6 (   5   1 )
 Number of external orbitals:      61 (  42  19 )

 Molecular orbitals read from record     2100.2  Type=RHF/CANONICAL (state 1.1)

 MP2-F12 correlation treatment (H.-J. Werner, 2006)
 ==================================================

 Using MP2-F12 with ansatz 3C(FIX)

 Using projected zeroth-order Hamiltonian (+Z)

 FOCKRIB=T FOCKRIC=T FOCKRIP=T CABSP=T CABSA=T CABSK=T CABSF=T GBC=F EBC=F DMAT=T NOFIK=T NOPAO=1 SOLVE=-1  USEPAO=0
 EXCH_A= T EXCH_B= F EXCH_C= F EXCH_P= F

 Geminal basis:    OPTFULL  GEM_TYPE=SLATER  BETA=1.0  NGEM=6

 Optimizing Gaussian exponents for each gem_beta

 Geminal optimization for beta= 1.0000
 Weight function:   m=0, omega= 1.4646

 Augmented Hessian optimization of geminal fit. Trust ratio= 0.40000
 Convergence reached after   2 iterations. Final gradient= 8.66D-16, Step= 4.23D-06, Delta= 1.28D-09

 Alpha:                 0.19532     0.81920     2.85917     9.50073    35.69989   197.79328
 Coeff:                 0.27070     0.30552     0.18297     0.10986     0.06810     0.04224


 Symmetry turned off. Reference energy:       -137.792830211052

 All pairs explicitly correlated. Number of r12-pairs:           21

 Excluding core orbitals from MO domains

 AO(A)-basis ORBITAL           loaded. Number of functions:      69
 RI(R)-basis CC-PVDZ-F12/OPTRI loaded. Number of functions:     154
 DF-basis AUG-CC-PVDZ/JKFIT    loaded. Number of functions:     204

 Screening thresholds:   THRAO=  1.00D-10  THRMO=  1.00D-10  THRPROD=  1.00D-10
                         THRSW=  1.00D-07  THROV=  1.00D-12  THRAOF12= 1.00D-08

 CPU time for Fock operators                      0.91 sec

 Construction of ABS:
 Smallest eigenvalue of S          3.04E-03  (threshold= 1.00E-08)
 Ratio eigmin/eigmax               6.60E-04  (threshold= 1.00E-09)
 Smallest eigenvalue of S kept     3.04E-03  (threshold= 3.04E-03, 0 functions deleted, 154 kept)

 Construction of CABS:
 Smallest eigenvalue of S          1.02E-05  (threshold= 1.00E-08)
 Ratio eigmin/eigmax               1.02E-05  (threshold= 1.00E-09)
 Smallest eigenvalue of S kept     1.02E-05  (threshold= 1.02E-05, 0 functions deleted, 154 kept)

 CPU time for CABS singles                        0.01 sec

 CABS-singles contribution of  -0.00656977 patched into reference energy.
 New reference energy        -137.79939998

 AO(A)-basis ORBITAL           loaded. Number of functions:      69
 RI(R)-basis CC-PVDZ-F12/OPTRI loaded. Number of functions:     154
 DF-basis AUG-CC-PVDZ/MP2FIT   loaded. Number of functions:     167

 Screening thresholds:   THRAO=  1.00D-10  THRMO=  1.00D-10  THRPROD=  1.00D-10
                         THRSW=  1.00D-07  THROV=  1.00D-12  THRAOF12= 1.00D-08

 CPU time for 3-index integral evaluation         0.41 sec
 CPU time for first  half transformation          0.01 sec (15196.5 MFLOP/sec)
 CPU time for second half transformation          0.01 sec (  774.3 MFLOP/sec)
 CPU time for fitting                             0.02 sec ( 4133.1 MFLOP/sec)
 CPU time for assembly                            0.04 sec (19371.9 MFLOP/sec)
 CPU time for tranop_f12                          0.06 sec (17416.6 MFLOP/sec)
 CPU time for f12 integrals (total)               1.22 sec, Elapsed time:      1.29 sec
 CPU time for f12 matrices (total)                0.01 sec, Elapsed time:      0.02 sec

 Diagonal F12 approximation with fixed coefficients:  TSING= 0.500,  TTRIP= 0.250 (scaled by -1/beta)

 DF-MP2-F12 energy corrections:
 ==============================
 Approx.                                    Singlet             Triplet             Total
 DF-MP2-F12/3*C(DX,FIX)                -0.078214715124     -0.016097867877     -0.094312583000
 DF-MP2-F12/3*C(FIX)                   -0.069086639351     -0.015134149522     -0.084220788873
 DF-MP2-F12/3C(FIX)                    -0.069739001114     -0.015916108676     -0.085655109790

 DF-MP2-F12 correlation energies:
 ================================
 Approx.                                    Singlet             Triplet             Ecorr            Total Energy
 DF-MP2                                -0.223524054527     -0.131917250305     -0.355441304832   -138.154841284408
 DF-MP2-F12/3*C(DX,FIX)                -0.301738769651     -0.148015118182     -0.449753887832   -138.249153867408
 DF-MP2-F12/3*C(FIX)                   -0.292610693878     -0.147051399827     -0.439662093705   -138.239062073281
 DF-MP2-F12/3C(FIX)                    -0.293263055641     -0.147833358981     -0.441096414623   -138.240496394198

 SCS-DF-MP2 energies (F_SING= 1.20000  F_TRIP= 0.62222  F_PARALLEL= 0.33333):
 ============================================================================
 SCS-DF-MP2                            -0.350310710067   -138.149710689642
 SCS-DF-MP2-F12/3*C(DX,FIX)            -0.454184819338   -138.253584798914
 SCS-DF-MP2-F12/3*C(FIX)               -0.442631481435   -138.242031461011
 SCS-DF-MP2-F12/3C(FIX)                -0.443900867913   -138.243300847489

 Symmetry restored.
 Symmetry transformation completed.

 Number of N-1 electron functions:               6
 Number of N-2 electron functions:              21
 Number of singly external CSFs:               229
 Number of doubly external CSFs:             35788
 Total number of CSFs:                       36018

 Length of J-op  integral file:              15.24 MB
 Length of K-op  integral file:              18.55 MB
 Length of 3-ext integral record:             0.00 MB

 Memory could be reduced to 1.16 Mwords without degradation in triples

 Integral transformation finished. Total CPU:   0.03 sec, npass=  1  Memory used:   0.52 MW

 Reference energy:                   -137.79939998

 Adding F12 terms to K(Cij), methodcc=6,  factor= 1.0

 ITER.      SQ.NORM     CORR.ENERGY   TOTAL ENERGY   ENERGY CHANGE        DEN1      VAR(S)    VAR(P)  DIIS     TIME  TIME/IT
   1      1.09223420    -0.36160822  -138.16100820    -0.00606244     0.00560509  0.27D-02  0.22D-02  1  1     2.29     0.05
   2      1.10176568    -0.36231293  -138.16171291    -0.00070471    -0.00912292  0.80D-04  0.55D-03  2  2     2.34     0.05
   3      1.10849017    -0.36320703  -138.16260701    -0.00089411    -0.00249873  0.10D-03  0.11D-03  3  3     2.39     0.05
   4      1.11304885    -0.36346979  -138.16286977    -0.00026276    -0.00142235  0.97D-05  0.36D-04  4  4     2.45     0.05
   5      1.11617666    -0.36356644  -138.16296642    -0.00009664    -0.00049056  0.13D-05  0.80D-05  5  5     2.49     0.06
   6      1.11759480    -0.36357316  -138.16297313    -0.00000672    -0.00009500  0.44D-06  0.13D-05  6  6     2.54     0.06
   7      1.11795199    -0.36358392  -138.16298390    -0.00001076    -0.00002948  0.23D-06  0.18D-06  6  2     2.59     0.06
   8      1.11799032    -0.36358780  -138.16298778    -0.00000388     0.00000784  0.33D-07  0.30D-07  6  1     2.64     0.06
   9      1.11801003    -0.36358906  -138.16298904    -0.00000127    -0.00000331  0.10D-07  0.41D-08  6  3     2.69     0.06
  10      1.11800458    -0.36359001  -138.16298999    -0.00000095     0.00000326  0.11D-08  0.83D-09  6  4     2.75     0.06
  11      1.11800155    -0.36359010  -138.16299008    -0.00000009     0.00000076  0.31D-09  0.11D-09  6  5     2.80     0.06
  12      1.11800003    -0.36359023  -138.16299021    -0.00000013     0.00000060  0.46D-10  0.25D-10  6  6     2.84     0.06
  13      1.11799909    -0.36359023  -138.16299021    -0.00000000     0.00000011  0.12D-10  0.63D-11  6  2     2.89     0.06
  14      1.11799834    -0.36359024  -138.16299022    -0.00000001     0.00000010  0.20D-11  0.25D-11  6  1     2.93     0.06
  15      1.11799776    -0.36359025  -138.16299022    -0.00000000     0.00000005  0.27D-12  0.91D-12  6  3     2.98     0.06
  16      1.11799740    -0.36359025  -138.16299023    -0.00000000     0.00000004  0.39D-13  0.30D-12  6  4     3.03     0.06
  17      1.11799717    -0.36359025  -138.16299023    -0.00000000     0.00000003  0.29D-13  0.55D-13  6  5     3.08     0.06
  18      1.11799707    -0.36359024  -138.16299022     0.00000000     0.00000001  0.78D-14  0.74D-14  6  6     3.13     0.06
  19      1.11799706    -0.36359025  -138.16299022    -0.00000000     0.00000000  0.28D-14  0.16D-14  6  2     3.18     0.06
  20      1.11799706    -0.36359025  -138.16299022     0.00000000    -0.00000000  0.24D-15  0.28D-15  6  3     3.23     0.06
  21      1.11799705    -0.36359025  -138.16299022    -0.00000000     0.00000000  0.26D-16  0.18D-16  6  1     3.28     0.06
  22      1.11799705    -0.36359025  -138.16299022    -0.00000000    -0.00000000  0.74D-17  0.44D-17  6  4     3.33     0.06
  23      1.11799705    -0.36359025  -138.16299022    -0.00000000     0.00000000  0.11D-17  0.68D-18  6  5     3.39     0.06
  24      1.11799705    -0.36359025  -138.16299022    -0.00000000     0.00000000  0.22D-18  0.20D-18  6  6     3.44     0.06
  25      1.11799705    -0.36359025  -138.16299022    -0.00000000    -0.00000000  0.40D-19  0.70D-19  6  2     3.47     0.06
  26      1.11799705    -0.36359025  -138.16299022    -0.00000000    -0.00000000  0.23D-20  0.22D-19  6  3     3.52     0.06
  27      1.11799705    -0.36359025  -138.16299022     0.00000000    -0.00000000  0.43D-21  0.80D-20  6  1     3.57     0.06
  28      1.11799705    -0.36359025  -138.16299022    -0.00000000    -0.00000000  0.30D-21  0.17D-20  6  5     3.62     0.06

 Norm of t1 vector:      0.08186034      S-energy:    -0.00000000      T1 diagnostic:  0.01670967
                                                                       D1 diagnostic:  0.04903775

 Doubles amplitudes (print threshold =  0.500E-01):

         I         J         SYM. A    SYM. B    A         B      T(IJ, AB)

         5         5         2         2         1         1     -0.06349175
         5         5         2         2         1         2      0.05287472
         5         5         2         2         2         1      0.05287472

 Adding energy correction from Wij-K(Fij), methodcc=6  factor= 1.0

  CCSD correlation energy              -0.363590245395
  MP2-F12 correction (uncoupled)       -0.080912458015
  C*T doubles correction               -0.002658313830
  f12b correction                       0.010229854345


 Total CPU time for triples:      0.27 sec


 RESULTS
 =======

  Reference energy                   -137.792830211052
  F12 singles correction               -0.006569768524

 F12 singles corrections added to reference energy

  New reference energy               -137.799399979576

  F12a singlet correction              -0.068367730077
  F12a triplet correction              -0.015203041768
  F12a total correction                -0.083570771845

 F12a corrections for ansatz F12/3C(FIX) added to CCSD energy

  CCSD-F12a singlet pair energy        -0.313286051906
  CCSD-F12a triplet pair energy        -0.133874965332
  CCSD-F12a correlation energy         -0.447161017240

  Triples (T) contribution             -0.012637384096
  Total correlation energy             -0.459798401336

  CCSD-F12a total energy             -138.246560996815
  CCSD[T]-F12a energy                -138.260314426098
  CCSD-T-F12a energy                 -138.258822151482
 !CCSD(T)-F12a total energy          -138.259198380911

 F12b corrections for ansatz F12/3C(FIX) added to CCSD(T)-F12a energy

  CCSD-F12b singlet pair energy        -0.304031759047
  CCSD-F12b triplet pair energy        -0.132899403846
  CCSD-F12b correlation energy         -0.436931162895

  Triples (T) contribution             -0.012637384096
  Total correlation energy             -0.449568546991

  CCSD-F12b total energy             -138.236331142470
  CCSD[T]-F12b energy                -138.250084571753
  CCSD-T-F12b energy                 -138.248592297137
 !CCSD(T)-F12b total energy          -138.248968526567

 Timing summary (sec):

 STEP                 CPU(USER)    SYS     CPU(TOT)    WALL
 Transformation          0.03      0.02      0.05      0.05
 CCSD iterations         1.42      0.19      1.61      1.62
 Triples                 0.27      0.04      0.31      0.30
 MP2-F12                 2.17      0.12      2.29      2.63
 F12b energy             0.03      0.00      0.03      0.03

 Program statistics:

 Available memory in ccsd:              1999999744
 Min. memory needed in ccsd:                136839
 Max. memory used in ccsd:                  163083
 Max. memory used in cckext:                208330 (29 integral passes)



 **********************************************************************************************************************************
 DATASETS  * FILE   NREC   LENGTH (MB)   RECORD NAMES
              1      20       45.77       500      610      700      900      950      970     1000      129      960     1100   
                                          VAR    BASINP    GEOM    SYMINP    ZMAT    AOBASIS   BASIS     P2S    ABASIS      S 
                                         1400     1410     1200     1210     1080     1600     1650     1300     1700     1380   
                                           T        V       H0       H01     AOSYM     SMH    MOLCAS    ERIS     OPER     JKOP   

              2       6        2.90       700     1000      520     2100     7360     7350   
                                         GEOM     BASIS   MCVARS     RHF    F12ABS    EF12   

 PROGRAMS   *        TOTAL   CCSD(T)    HF-SCF       INT
 CPU TIMES  *         5.26      3.94      0.28      0.90
 REAL TIME  *         7.73 SEC
 DISK USED  *        97.74 MB
 **********************************************************************************************************************************
 SETTING EE(1)          =      -138.24896853  AU                              


 Computing numerical gradient using default procedure for command CCSD(T)-F12

 *** Long output written to logfile /home/mdavis/f12eom_optimizer/tests/slurm/molpro_step.log ***


 Running default procedure: HF-SCF000  CCSD(T)-F12


 Generated   3 symmetrical displacements

 Numerical gradient for CCSD(T)-F12

 Total Energy          -138.24896853  Dipole moments:    0.000000    0.000000    0.000000

 Atom          dE/dx               dE/dy               dE/dz                  d2E/dx2             d2E/dy2             d2E/dz2
   1         0.040379061         0.022005915         0.000000000            0.000000000         0.000000000         0.000000000
   2        -0.073063753         0.000444097        -0.000000000            0.000000000         0.000000000         0.000000000
   3         0.032684692        -0.022450012         0.000000000            0.000000000         0.000000000         0.000000000

 Recomputing wavefunction at initial geometry


 **********************************************************************************************************************************
 DATASETS  * FILE   NREC   LENGTH (MB)   RECORD NAMES
              1      21       45.99       500      610      700      900      701      950      970     1000      129      960   
                                          VAR    BASINP    GEOM    SYMINP    GEOM     ZMAT    AOBASIS   BASIS     P2S    ABASIS    
                                         1100     1400     1410     1200     1210     1080     1600     1650     1300     1700   
                                           S        T        V       H0       H01     AOSYM     SMH    MOLCAS    ERIS     OPER   
                                         1380   
                                         JKOP   

              2       8        3.12       700     1000      520     2100     7360     7350      701     5600   
                                         GEOM     BASIS   MCVARS     RHF    F12ABS    EF12     GEOM     GINFO   

 PROGRAMS   *        TOTAL    FORCES    HF-SCF       INT   CCSD(T)    HF-SCF       INT
 CPU TIMES  *        42.12      3.91      0.04     32.91      3.94      0.28      0.90
 REAL TIME  *        53.76 SEC
 DISK USED  *       100.73 MB
 **********************************************************************************************************************************
 EE(1)            =     -138.248968526567 AU
 GRADX(1:3)       = [      0.040379061385   -0.073063753260    0.032684691875] AU
 GRADY(1:3)       = [      0.022005914977    0.000444096548   -0.022450011525] AU
 GRADZ(1:3)       = [      0.000000000000   -0.000000000000    0.000000000000] AU

 CCSD(T)-F12/cc-pVDZ-F12 energy=   -138.248968526567

     CCSD(T)-F12          HF-SCF     CCSD(T)-F12          HF-SCF
   -138.24896853   -137.79283021   -138.24896853   -137.79283021
 **********************************************************************************************************************************
 Molpro calculation terminated
