
 Primary working directories    : /scratch/mdavis/molpro_step_2022-08-17_17_18_42/molpro.iMepIX1Woo
 Secondary working directories  : /scratch/mdavis/molpro_step_2022-08-17_17_18_42/molpro.iMepIX1Woo
 Wavefunction directory         : /home/mdavis/f12eom_optimizer/tests/slurm/./
 Main file repository           : /scratch/mdavis/molpro_step_2022-08-17_17_18_42/molpro.iMepIX1Woo/

 id        : olemiss

 Nodes     nprocs
 node17       1

 Using customized tuning parameters: mindgm=1; mindgv=20; mindgc=4; mindgr=1; noblas=0; minvec=7
 default implementation of scratch files=df  


 Variables initialized (945), CPU time= 0.01 sec
 ***,part of geometry opt run
 memory, 2000.0, m;
 gthresh,energy=1.d-12,zero=1.d-22,oneint=1.d-22,twoint=1.d-22;
 gthresh,optgrad=1.d-8,optstep=1.d-8;
 nocompress;
 bohr;
 geometry={
      3
 Fragment 1
     H  -1.6133969865   1.6788591237   0.0000000000
     C   0.5036660754   1.1204675575   0.0000000000
     F   0.2310836457  -1.4790468312   0.0000000000
      }
 
 set,charge=0
 set,spin=0
 basis=vdz-f12
 hf,maxit=500;wf,charge=0,spin=0;accu,20;
 ccsd(t)-f12,maxit=250;wf,charge=0,spin=0;orbital,IGNORE_ERROR;
 ee(1)=energy(2)
 forces,varsav
 SHOW[f18.12],ee(1)
 SHOW[f18.12],GRADX
 SHOW[f18.12],GRADY
 SHOW[f18.12],GRADZ
 Commands  initialized (802), CPU time= 0.01 sec, 659 directives.
 Default parameters read. Elapsed time= 0.10 sec

 Checking input...
 Passed
1


                                         ***  PROGRAM SYSTEM MOLPRO  ***
                                       Copyright, TTI GmbH Stuttgart, 2015
                                    Version 2020.1 linked Oct  6 2020 12:04:11


 **********************************************************************************************************************************
 LABEL *   part of geometry opt run                                                      
  64 bit serial version                                                                  DATE: 17-Aug-22          TIME: 17:18:42  
 **********************************************************************************************************************************

 SHA1:             8c27446f6450a7499e38f603e13c65f775101d37
 **********************************************************************************************************************************

 Memory per process:      2000 MW
 Total memory per node:   2000 MW

 GA preallocation disabled
 GA check disabled

 Variable memory set to 2000.0 MW


 THRESHOLDS:

 ZERO    =  1.00D-22  ONEINT  =  1.00D-22  TWOINT  =  1.00D-22  PREFAC  =  1.00D-14  XXXXXX  =  1.00D-09  EORDER  =  1.00D-04
 ENERGY  =  1.00D-12  ETEST   =  0.00D+00  EDENS   =  0.00D+00  THRDEDEF=  1.00D-06  GRADIENT=  1.00D-05  STEP    =  1.00D-03
 ORBITAL =  1.00D-05  CIVEC   =  1.00D-05  COEFF   =  1.00D-04  PRINTCI =  5.00D-02  PUNCHCI =  9.90D+01  OPTGRAD =  3.00D-04
 OPTENERG=  1.00D-06  OPTSTEP =  3.00D-04  THRGRAD =  1.00D-10  COMPRESS=  1.00D-11  VARMIN  =  1.00D-07  VARMAX  =  1.00D-03
 THRDOUB =  0.00D+00  THRDIV  =  1.00D-05  THRRED  =  1.00D-07  THRPSP  =  1.00D+00  THRDC   =  1.00D-10  THRCS   =  1.00D-10
 THRNRM  =  1.00D-08  THREQ   =  0.00D+00  THRDE   =  1.00D+00  THRREF  =  1.00D-05  SPARFAC =  1.00D+00  THRDLP  =  1.00D-07
 THRDIA  =  1.00D-10  THRDLS  =  1.00D-07  THRGPS  =  0.00D+00  THRKEX  =  0.00D+00  THRDIS  =  2.00D-01  THRVAR  =  1.00D-10
 THRLOC  =  1.00D-06  THRGAP  =  1.00D-06  THRLOCT = -1.00D+00  THRGAPT = -1.00D+00  THRORB  =  1.00D-06  THRMLTP =  0.00D+00
 THRCPQCI=  1.00D-10  KEXTA   =  0.00D+00  THRCOARS=  0.00D+00  SYMTOL  =  1.00D-06  GRADTOL =  1.00D-06  THROVL  =  1.00D-08
 THRORTH =  1.00D-08  GRID    =  1.00D-06  GRIDMAX =  1.00D-03  DTMAX   =  0.00D+00  THROCCDE=  1.00D-01  THROCCDE=  1.00D-01
 THRPRINT=  2.50D-01


 THRESHOLDS:

 ZERO    =  1.00D-22  ONEINT  =  1.00D-22  TWOINT  =  1.00D-22  PREFAC  =  1.00D-14  XXXXXX  =  1.00D-09  EORDER  =  1.00D-04
 ENERGY  =  1.00D-12  ETEST   =  0.00D+00  EDENS   =  0.00D+00  THRDEDEF=  1.00D-06  GRADIENT=  1.00D-05  STEP    =  1.00D-03
 ORBITAL =  1.00D-05  CIVEC   =  1.00D-05  COEFF   =  1.00D-04  PRINTCI =  5.00D-02  PUNCHCI =  9.90D+01  OPTGRAD =  1.00D-08
 OPTENERG=  1.00D-06  OPTSTEP =  1.00D-08  THRGRAD =  1.00D-10  COMPRESS=  1.00D-11  VARMIN  =  1.00D-07  VARMAX  =  1.00D-03
 THRDOUB =  0.00D+00  THRDIV  =  1.00D-05  THRRED  =  1.00D-07  THRPSP  =  1.00D+00  THRDC   =  1.00D-10  THRCS   =  1.00D-10
 THRNRM  =  1.00D-08  THREQ   =  0.00D+00  THRDE   =  1.00D+00  THRREF  =  1.00D-05  SPARFAC =  1.00D+00  THRDLP  =  1.00D-07
 THRDIA  =  1.00D-10  THRDLS  =  1.00D-07  THRGPS  =  0.00D+00  THRKEX  =  0.00D+00  THRDIS  =  2.00D-01  THRVAR  =  1.00D-10
 THRLOC  =  1.00D-06  THRGAP  =  1.00D-06  THRLOCT = -1.00D+00  THRGAPT = -1.00D+00  THRORB  =  1.00D-06  THRMLTP =  0.00D+00
 THRCPQCI=  1.00D-10  KEXTA   =  0.00D+00  THRCOARS=  0.00D+00  SYMTOL  =  1.00D-06  GRADTOL =  1.00D-06  THROVL  =  1.00D-08
 THRORTH =  1.00D-08  GRID    =  1.00D-06  GRIDMAX =  1.00D-03  DTMAX   =  0.00D+00  THROCCDE=  1.00D-01  THROCCDE=  1.00D-01
 THRPRINT=  2.50D-01


 Input parameters for SORTINT:

 COMPRESS =    0.000000
 C_FINAL  =    1.000000
 DEBUG    =   -1.000000
 C_SORT1  =    0.000000
 C_SEWARD =    0.000000
 THRESH   =    0.000000
 IO       =  molpro                                                                                                                          
 SPRI     =    0.000000
 ZUNIT=BOHR


 Geometry recognized as XYZ

 SETTING CHARGE         =     0.00000000D+00                                  
 SETTING SPIN           =     0.00000000D+00                                  
 SETTING BASIS          =    VDZ-F12


 Recomputing integrals since basis changed


 Using spherical harmonics

 Library entry H      S cc-pVDZ-F12          selected for orbital group  1
 Library entry H      P cc-pVDZ-F12          selected for orbital group  1
 Library entry C      S cc-pVDZ-F12          selected for orbital group  2
 Library entry C      P cc-pVDZ-F12          selected for orbital group  2
 Library entry C      D cc-pVDZ-F12          selected for orbital group  2
 Library entry F      S cc-pVDZ-F12          selected for orbital group  3
 Library entry F      P cc-pVDZ-F12          selected for orbital group  3
 Library entry F      D cc-pVDZ-F12          selected for orbital group  3


 PROGRAM * SEWARD (Integral evaluation for generally contracted gaussian basis sets)     Author: Roland Lindh, 1990

 Geometry written to block  1 of record 700


 Point group  Cs  



 ATOMIC COORDINATES

 NR  ATOM    CHARGE       X              Y              Z

   1  H       1.00   -1.613396986    1.678859124    0.000000000
   2  C       6.00    0.503666075    1.120467558    0.000000000
   3  F       9.00    0.231083646   -1.479046831    0.000000000

 Bond lengths in Bohr (Angstrom)

 1-2  2.189465037  2-3  2.613766676
     ( 1.158615002)     ( 1.383145760)

 Bond angles

  1-2-3   98.78959448

 NUCLEAR CHARGE:                   16
 NUMBER OF PRIMITIVE AOS:          93
 NUMBER OF SYMMETRY AOS:           89
 NUMBER OF CONTRACTIONS:           69   (   49A'  +   20A"  )
 NUMBER OF INNER CORE ORBITALS:     0   (    0A'  +    0A"  )
 NUMBER OF OUTER CORE ORBITALS:     2   (    2A'  +    0A"  )
 NUMBER OF VALENCE ORBITALS:        9   (    7A'  +    2A"  )


 NUCLEAR REPULSION ENERGY   25.86119221

 Eigenvalues of metric

         1 0.206E-02 0.323E-02 0.328E-02 0.394E-02 0.447E-02 0.468E-02 0.479E-02 0.981E-02
         2 0.330E-02 0.468E-02 0.875E-01 0.980E-01 0.145E+00 0.190E+00 0.257E+00 0.393E+00


 Contracted 2-electron integrals neglected if value below      1.0D-22

        1426049. INTEGRALS WRITTEN OUT IN     349 BLOCKS ON RECORD 1290 OF FILE 1


 NUMBER OF SORTED TWO-ELECTRON INTEGRALS:    1544830.     BUFFER LENGTH:  32768
 NUMBER OF SEGMENTS:   1  SEGMENT LENGTH:    1544830      RECORD LENGTH: 524288

 Memory used in sort:       2.10 MW

 SORT1 READ     1426049. AND WROTE     1455925. INTEGRALS IN      5 RECORDS. CPU TIME:     0.03 SEC, REAL TIME:     0.04 SEC
 SORT2 READ     1455925. AND WROTE     1544830. INTEGRALS IN      1 RECORDS. CPU TIME:     0.06 SEC, REAL TIME:     0.06 SEC

 FILE SIZES:   FILE 1:    53.0 MBYTE,  FILE 4:    21.0 MBYTE,   TOTAL:     74.0 MBYTE

 OPERATOR DM      FOR CENTER  0  COORDINATES:    0.000000    0.000000    0.000000


 **********************************************************************************************************************************
 DATASETS  * FILE   NREC   LENGTH (MB)   RECORD NAMES
              1      19       42.18       500      610      700      900      950      970     1000      129      960     1100   
                                          VAR    BASINP    GEOM    SYMINP    ZMAT    AOBASIS   BASIS     P2S    ABASIS      S 
                                         1400     1410     1200     1210     1080     1600     1650     1300     1700   
                                           T        V       H0       H01     AOSYM     SMH    MOLCAS    ERIS     OPER   

 PROGRAMS   *        TOTAL       INT
 CPU TIMES  *         0.96      0.81
 REAL TIME  *         2.64 SEC
 DISK USED  *        74.32 MB
 **********************************************************************************************************************************


 PROGRAM * RHF-SCF (CLOSED SHELL)       Authors: W. Meyer, H.-J. Werner


 NUMBER OF ELECTRONS:       8+    8-
 CONVERGENCE THRESHOLDS:    1.00E-10 (Density)    1.00E-13 (Energy)
 MAX. NUMBER OF ITERATIONS:      500
 INTERPOLATION TYPE:            DIIS
 INTERPOLATION STEPS:              2 (START)      1 (STEP)
 LEVEL SHIFTS:                  0.00 (CLOSED)  0.00 (OPEN) 



 Orbital guess generated from atomic densities. Full valence occupancy:    9   2

 Molecular orbital dump at record        2100.2

 Initial occupancy:   7   1

 ITERATION    DDIFF          GRAD             ENERGY        2-EL.EN.            DIPOLE MOMENTS         DIIS   ORB.
    1      0.000D+00      0.000D+00      -137.76522121    155.317779   -0.62655    0.32347    0.00000    0    start
    2      0.000D+00      0.113D-01      -137.79466975    155.602119   -0.64157    0.11053    0.00000    1    diag
    3      0.168D-01      0.560D-02      -137.80090144    156.365286   -0.59510    0.28267    0.00000    2    diag
    4      0.541D-02      0.148D-02      -137.80137495    156.088693   -0.58905    0.27508    0.00000    3    diag
    5      0.125D-02      0.299D-03      -137.80144154    156.140223   -0.58776    0.28509    0.00000    4    diag
    6      0.477D-03      0.847D-04      -137.80144918    156.142285   -0.58686    0.28712    0.00000    5    diag
    7      0.167D-03      0.295D-04      -137.80145010    156.142423   -0.58693    0.28691    0.00000    6    diag
    8      0.729D-04      0.642D-05      -137.80145014    156.142236   -0.58693    0.28667    0.00000    7    diag
    9      0.162D-04      0.135D-05      -137.80145014    156.142243   -0.58695    0.28660    0.00000    8    diag
   10      0.303D-05      0.330D-06      -137.80145014    156.142232   -0.58695    0.28658    0.00000    9    orth
   11      0.894D-06      0.782D-07      -137.80145014    156.142230   -0.58695    0.28658    0.00000    9    diag
   12      0.211D-06      0.167D-07      -137.80145014    156.142230   -0.58695    0.28658    0.00000    9    diag
   13      0.390D-07      0.442D-08      -137.80145014    156.142230   -0.58695    0.28658    0.00000    9    diag
   14      0.110D-07      0.133D-08      -137.80145014    156.142230   -0.58695    0.28658    0.00000    9    diag
   15      0.251D-08      0.240D-09      -137.80145014    156.142230   -0.58695    0.28658    0.00000    9    diag
   16      0.346D-09      0.609D-10      -137.80145014    156.142230   -0.58695    0.28658    0.00000    9    diag
   17      0.121D-09      0.134D-10      -137.80145014    156.142230   -0.58695    0.28658    0.00000    9    diag
   18      0.325D-10      0.264D-11      -137.80145014    156.142230   -0.58695    0.28658    0.00000    0    orth

 Final occupancy:   7   1

 !RHF STATE  1.1 Energy              -137.801450139648
 Nuclear energy                        25.86119221
 One-electron energy                 -241.73375738
 Two-electron energy                   78.07111503
 Virial quotient                       -1.00205370
 !RHF STATE  1.1 Dipole moment         -0.58695028     0.28658016     0.00000000
 Dipole moment /Debye                  -1.49178110     0.72836640     0.00000000

 Orbital energies:

         1.1          2.1          3.1          4.1          5.1          6.1          7.1          8.1          9.1
    -26.343010   -11.392071    -1.642313    -0.913339    -0.735133    -0.652032    -0.429116     0.071075     0.081956

         1.2          2.2          3.2
     -0.688750     0.034383     0.118745


 HOMO      7.1    -0.429116 =     -11.6768eV
 LUMO      2.2     0.034383 =       0.9356eV
 LUMO-HOMO         0.463499 =      12.6124eV


 **********************************************************************************************************************************
 DATASETS  * FILE   NREC   LENGTH (MB)   RECORD NAMES
              1      19       42.18       500      610      700      900      950      970     1000      129      960     1100   
                                          VAR    BASINP    GEOM    SYMINP    ZMAT    AOBASIS   BASIS     P2S    ABASIS      S 
                                         1400     1410     1200     1210     1080     1600     1650     1300     1700   
                                           T        V       H0       H01     AOSYM     SMH    MOLCAS    ERIS     OPER   

              2       4        2.84       700     1000      520     2100   
                                         GEOM     BASIS   MCVARS     RHF  

 PROGRAMS   *        TOTAL    HF-SCF       INT
 CPU TIMES  *         1.21      0.26      0.81
 REAL TIME  *         2.97 SEC
 DISK USED  *        74.32 MB
 **********************************************************************************************************************************


 PROGRAM * CCSD (Closed-shell coupled cluster)     Authors: C. Hampel, H.-J. Werner, 1991, M. Deegan, P.J. Knowles, 1992

                                  CCSD-F12 implementation by  H.-J. Werner, 2007

                   Density fitting integral evaluation by F.R. Manby, 2003,2007, G. Knizia, 2010


 Basis set AUG-CC-PVDZ/JKFIT generated.  Number of basis functions:   204 
 Basis set CC-PVDZ-F12/OPTRI generated.  Number of basis functions:   154 
 Basis set AUG-CC-PVDZ/MP2FIT generated. Number of basis functions:   167 

 Convergence thresholds:  THRVAR = 1.00D-16  THRDEN = 1.00D-12

 CCSD(T)     terms to be evaluated (factor= 1.000)


 Number of core orbitals:           2 (   2   0 )
 Number of closed-shell orbitals:   6 (   5   1 )
 Number of external orbitals:      61 (  42  19 )

 Molecular orbitals read from record     2100.2  Type=RHF/CANONICAL (state 1.1)

 MP2-F12 correlation treatment (H.-J. Werner, 2006)
 ==================================================

 Using MP2-F12 with ansatz 3C(FIX)

 Using projected zeroth-order Hamiltonian (+Z)

 FOCKRIB=T FOCKRIC=T FOCKRIP=T CABSP=T CABSA=T CABSK=T CABSF=T GBC=F EBC=F DMAT=T NOFIK=T NOPAO=1 SOLVE=-1  USEPAO=0
 EXCH_A= T EXCH_B= F EXCH_C= F EXCH_P= F

 Geminal basis:    OPTFULL  GEM_TYPE=SLATER  BETA=1.0  NGEM=6

 Optimizing Gaussian exponents for each gem_beta

 Geminal optimization for beta= 1.0000
 Weight function:   m=0, omega= 1.4646

 Augmented Hessian optimization of geminal fit. Trust ratio= 0.40000
 Convergence reached after   2 iterations. Final gradient= 8.66D-16, Step= 4.23D-06, Delta= 1.28D-09

 Alpha:                 0.19532     0.81920     2.85917     9.50073    35.69989   197.79328
 Coeff:                 0.27070     0.30552     0.18297     0.10986     0.06810     0.04224


 Symmetry turned off. Reference energy:       -137.801450139647

 All pairs explicitly correlated. Number of r12-pairs:           21

 Excluding core orbitals from MO domains

 AO(A)-basis ORBITAL           loaded. Number of functions:      69
 RI(R)-basis CC-PVDZ-F12/OPTRI loaded. Number of functions:     154
 DF-basis AUG-CC-PVDZ/JKFIT    loaded. Number of functions:     204

 Screening thresholds:   THRAO=  1.00D-10  THRMO=  1.00D-10  THRPROD=  1.00D-10
                         THRSW=  1.00D-07  THROV=  1.00D-12  THRAOF12= 1.00D-08

 CPU time for Fock operators                      0.90 sec

 Construction of ABS:
 Smallest eigenvalue of S          4.05E-03  (threshold= 1.00E-08)
 Ratio eigmin/eigmax               8.62E-04  (threshold= 1.00E-09)
 Smallest eigenvalue of S kept     4.05E-03  (threshold= 4.05E-03, 0 functions deleted, 154 kept)

 Construction of CABS:
 Smallest eigenvalue of S          1.12E-05  (threshold= 1.00E-08)
 Ratio eigmin/eigmax               1.12E-05  (threshold= 1.00E-09)
 Smallest eigenvalue of S kept     1.12E-05  (threshold= 1.12E-05, 0 functions deleted, 154 kept)

 CPU time for CABS singles                        0.01 sec

 CABS-singles contribution of  -0.00577707 patched into reference energy.
 New reference energy        -137.80722721

 AO(A)-basis ORBITAL           loaded. Number of functions:      69
 RI(R)-basis CC-PVDZ-F12/OPTRI loaded. Number of functions:     154
 DF-basis AUG-CC-PVDZ/MP2FIT   loaded. Number of functions:     167

 Screening thresholds:   THRAO=  1.00D-10  THRMO=  1.00D-10  THRPROD=  1.00D-10
                         THRSW=  1.00D-07  THROV=  1.00D-12  THRAOF12= 1.00D-08

 CPU time for 3-index integral evaluation         0.40 sec
 CPU time for sorting                             0.01 sec
 CPU time for assembly                            0.04 sec (19371.9 MFLOP/sec)
 CPU time for tranop_f12                          0.05 sec (20899.9 MFLOP/sec)
 CPU time for f12 integrals (total)               1.22 sec, Elapsed time:      1.29 sec
 CPU time for f12 matrices (total)                0.02 sec, Elapsed time:      0.02 sec

 Diagonal F12 approximation with fixed coefficients:  TSING= 0.500,  TTRIP= 0.250 (scaled by -1/beta)

 DF-MP2-F12 energy corrections:
 ==============================
 Approx.                                    Singlet             Triplet             Total
 DF-MP2-F12/3*C(DX,FIX)                -0.077617075117     -0.015989747949     -0.093606823066
 DF-MP2-F12/3*C(FIX)                   -0.068697540192     -0.015102063886     -0.083799604078
 DF-MP2-F12/3C(FIX)                    -0.069358525789     -0.015859481441     -0.085218007230

 DF-MP2-F12 correlation energies:
 ================================
 Approx.                                    Singlet             Triplet             Ecorr            Total Energy
 DF-MP2                                -0.226797506275     -0.132807987273     -0.359605493549   -138.166832707204
 DF-MP2-F12/3*C(DX,FIX)                -0.304414581392     -0.148797735222     -0.453212316615   -138.260439530270
 DF-MP2-F12/3*C(FIX)                   -0.295495046467     -0.147910051159     -0.443405097626   -138.250632311282
 DF-MP2-F12/3C(FIX)                    -0.296156032065     -0.148667468714     -0.444823500779   -138.252050714435

 SCS-DF-MP2 energies (F_SING= 1.20000  F_TRIP= 0.62222  F_PARALLEL= 0.33333):
 ============================================================================
 SCS-DF-MP2                            -0.354793088501   -138.162020302156
 SCS-DF-MP2-F12/3*C(DX,FIX)            -0.457882755143   -138.265109968798
 SCS-DF-MP2-F12/3*C(FIX)               -0.446626976482   -138.253854190138
 SCS-DF-MP2-F12/3C(FIX)                -0.447891441233   -138.255118654889

 Symmetry restored.
 Symmetry transformation completed.

 Number of N-1 electron functions:               6
 Number of N-2 electron functions:              21
 Number of singly external CSFs:               229
 Number of doubly external CSFs:             35788
 Total number of CSFs:                       36018

 Length of J-op  integral file:              15.24 MB
 Length of K-op  integral file:              18.55 MB
 Length of 3-ext integral record:             0.00 MB

 Memory could be reduced to 1.16 Mwords without degradation in triples

 Integral transformation finished. Total CPU:   0.03 sec, npass=  1  Memory used:   0.52 MW

 Reference energy:                   -137.80722721

 Adding F12 terms to K(Cij), methodcc=6,  factor= 1.0

 ITER.      SQ.NORM     CORR.ENERGY   TOTAL ENERGY   ENERGY CHANGE        DEN1      VAR(S)    VAR(P)  DIIS     TIME  TIME/IT
   1      1.09656822    -0.36598852  -138.17321573    -0.00628330     0.00673748  0.33D-02  0.25D-02  1  1     2.28     0.05
   2      1.10707862    -0.36663815  -138.17386536    -0.00064963    -0.01002739  0.96D-04  0.61D-03  2  2     2.33     0.05
   3      1.11448750    -0.36757831  -138.17480552    -0.00094016    -0.00276604  0.14D-03  0.88D-04  3  3     2.38     0.05
   4      1.11890412    -0.36775207  -138.17497928    -0.00017376    -0.00149104  0.14D-04  0.24D-04  4  4     2.43     0.05
   5      1.12148849    -0.36780341  -138.17503062    -0.00005134    -0.00046772  0.20D-05  0.38D-05  5  5     2.48     0.05
   6      1.12240247    -0.36779329  -138.17502050     0.00001012    -0.00006122  0.96D-07  0.59D-06  6  6     2.53     0.05
   7      1.12258539    -0.36779371  -138.17502093    -0.00000043    -0.00002246  0.35D-07  0.12D-06  6  4     2.59     0.05
   8      1.12259647    -0.36779412  -138.17502134    -0.00000041     0.00000594  0.95D-08  0.18D-07  6  1     2.64     0.06
   9      1.12259763    -0.36779496  -138.17502217    -0.00000083     0.00000118  0.29D-08  0.23D-08  6  2     2.69     0.06
  10      1.12259524    -0.36779536  -138.17502257    -0.00000040     0.00000023  0.47D-09  0.41D-09  6  3     2.74     0.06
  11      1.12259408    -0.36779544  -138.17502265    -0.00000008     0.00000012  0.15D-09  0.62D-10  6  5     2.78     0.06
  12      1.12259305    -0.36779556  -138.17502278    -0.00000013     0.00000019  0.19D-10  0.14D-10  6  6     2.83     0.06
  13      1.12259200    -0.36779560  -138.17502282    -0.00000004     0.00000012  0.47D-11  0.20D-11  6  1     2.87     0.06
  14      1.12259143    -0.36779564  -138.17502285    -0.00000003     0.00000013  0.30D-12  0.33D-12  6  4     2.91     0.06
  15      1.12259127    -0.36779564  -138.17502286    -0.00000001     0.00000002  0.65D-13  0.85D-13  6  2     2.95     0.06
  16      1.12259117    -0.36779565  -138.17502286    -0.00000000     0.00000002  0.63D-14  0.14D-13  6  3     2.99     0.06
  17      1.12259114    -0.36779565  -138.17502286    -0.00000000     0.00000000  0.11D-14  0.18D-14  6  5     3.04     0.06
  18      1.12259114    -0.36779565  -138.17502286     0.00000000    -0.00000000  0.34D-15  0.35D-15  6  6     3.09     0.06
  19      1.12259114    -0.36779565  -138.17502286     0.00000000     0.00000000  0.13D-15  0.87D-16  6  1     3.14     0.06
  20      1.12259114    -0.36779565  -138.17502286     0.00000000    -0.00000000  0.22D-16  0.20D-16  6  4     3.19     0.06
  21      1.12259114    -0.36779565  -138.17502286    -0.00000000     0.00000000  0.71D-17  0.37D-17  6  2     3.24     0.06
  22      1.12259114    -0.36779565  -138.17502286     0.00000000    -0.00000000  0.54D-18  0.68D-18  6  5     3.28     0.06
  23      1.12259114    -0.36779565  -138.17502286     0.00000000     0.00000000  0.92D-19  0.32D-19  6  3     3.33     0.06
  24      1.12259114    -0.36779565  -138.17502286     0.00000000    -0.00000000  0.29D-19  0.73D-20  6  6     3.38     0.06
  25      1.12259114    -0.36779565  -138.17502286     0.00000000    -0.00000000  0.39D-20  0.16D-20  6  1     3.42     0.06
  26      1.12259114    -0.36779565  -138.17502286     0.00000000    -0.00000000  0.94D-21  0.23D-21  6  4     3.47     0.06
  27      1.12259114    -0.36779565  -138.17502286    -0.00000000     0.00000000  0.10D-21  0.44D-22  6  2     3.52     0.06

 Norm of t1 vector:      0.09105800      S-energy:    -0.00000000      T1 diagnostic:  0.01858714
                                                                       D1 diagnostic:  0.05552742

 Doubles amplitudes (print threshold =  0.500E-01):

         I         J         SYM. A    SYM. B    A         B      T(IJ, AB)

         5         5         2         2         1         1     -0.05800721

 Adding energy correction from Wij-K(Fij), methodcc=6  factor= 1.0

  CCSD correlation energy              -0.367795648013
  MP2-F12 correction (uncoupled)       -0.080560697565
  C*T doubles correction               -0.002605957328
  f12b correction                       0.010314337812


 Total CPU time for triples:      0.27 sec


 RESULTS
 =======

  Reference energy                   -137.801450139647
  F12 singles correction               -0.005777074008

 F12 singles corrections added to reference energy

  New reference energy               -137.807227213655

  F12a singlet correction              -0.067994711304
  F12a triplet correction              -0.015171943589
  F12a total correction                -0.083166654893

 F12a corrections for ansatz F12/3C(FIX) added to CCSD energy

  CCSD-F12a singlet pair energy        -0.317101953247
  CCSD-F12a triplet pair energy        -0.133860349659
  CCSD-F12a correlation energy         -0.450962302906

  Triples (T) contribution             -0.013305757900
  Total correlation energy             -0.464268060806

  CCSD-F12a total energy             -138.258189516562
  CCSD[T]-F12a energy                -138.272882432623
  CCSD-T-F12a energy                 -138.271023385972
 !CCSD(T)-F12a total energy          -138.271495274462

 F12b corrections for ansatz F12/3C(FIX) added to CCSD(T)-F12a energy

  CCSD-F12b singlet pair energy        -0.307762026961
  CCSD-F12b triplet pair energy        -0.132885938133
  CCSD-F12b correlation energy         -0.440647965094

  Triples (T) contribution             -0.013305757900
  Total correlation energy             -0.453953722994

  CCSD-F12b total energy             -138.247875178750
  CCSD[T]-F12b energy                -138.262568094810
  CCSD-T-F12b energy                 -138.260709048159
 !CCSD(T)-F12b total energy          -138.261180936649

 Timing summary (sec):

 STEP                 CPU(USER)    SYS     CPU(TOT)    WALL
 Transformation          0.03      0.02      0.05      0.04
 CCSD iterations         1.31      0.21      1.52      1.53
 Triples                 0.27      0.00      0.27      0.27
 MP2-F12                 2.18      0.08      2.26      2.56
 F12b energy             0.03      0.00      0.03      0.04

 Program statistics:

 Available memory in ccsd:              1999999744
 Min. memory needed in ccsd:                136839
 Max. memory used in ccsd:                  163083
 Max. memory used in cckext:                208330 (28 integral passes)



 **********************************************************************************************************************************
 DATASETS  * FILE   NREC   LENGTH (MB)   RECORD NAMES
              1      20       45.77       500      610      700      900      950      970     1000      129      960     1100   
                                          VAR    BASINP    GEOM    SYMINP    ZMAT    AOBASIS   BASIS     P2S    ABASIS      S 
                                         1400     1410     1200     1210     1080     1600     1650     1300     1700     1380   
                                           T        V       H0       H01     AOSYM     SMH    MOLCAS    ERIS     OPER     JKOP   

              2       6        2.90       700     1000      520     2100     7360     7350   
                                         GEOM     BASIS   MCVARS     RHF    F12ABS    EF12   

 PROGRAMS   *        TOTAL   CCSD(T)    HF-SCF       INT
 CPU TIMES  *         5.06      3.85      0.26      0.81
 REAL TIME  *         7.45 SEC
 DISK USED  *        97.74 MB
 **********************************************************************************************************************************
 SETTING EE(1)          =      -138.26118094  AU                              


 Computing numerical gradient using default procedure for command CCSD(T)-F12

 *** Long output written to logfile /home/mdavis/f12eom_optimizer/tests/slurm/molpro_step.log ***


 Running default procedure: HF-SCF000  CCSD(T)-F12


 Generated   3 symmetrical displacements

 Numerical gradient for CCSD(T)-F12

 Total Energy          -138.26118094  Dipole moments:    0.000000    0.000000    0.000000

 Atom          dE/dx               dE/dy               dE/dz                  d2E/dx2             d2E/dy2             d2E/dz2
   1        -0.019820956         0.002256245         0.000000000            0.000000000         0.000000000         0.000000000
   2         0.026857864         0.041771916         0.000000000            0.000000000         0.000000000         0.000000000
   3        -0.007036908        -0.044028161         0.000000000            0.000000000         0.000000000         0.000000000

 Recomputing wavefunction at initial geometry


 **********************************************************************************************************************************
 DATASETS  * FILE   NREC   LENGTH (MB)   RECORD NAMES
              1      21       45.99       500      610      700      900      701      950      970     1000      129      960   
                                          VAR    BASINP    GEOM    SYMINP    GEOM     ZMAT    AOBASIS   BASIS     P2S    ABASIS    
                                         1100     1400     1410     1200     1210     1080     1600     1650     1300     1700   
                                           S        T        V       H0       H01     AOSYM     SMH    MOLCAS    ERIS     OPER   
                                         1380   
                                         JKOP   

              2       8        3.12       700     1000      520     2100     7360     7350      701     5600   
                                         GEOM     BASIS   MCVARS     RHF    F12ABS    EF12     GEOM     GINFO   

 PROGRAMS   *        TOTAL    FORCES    HF-SCF       INT   CCSD(T)    HF-SCF       INT
 CPU TIMES  *        40.99      3.84      0.05     32.03      3.85      0.26      0.81
 REAL TIME  *        51.73 SEC
 DISK USED  *       100.73 MB
 **********************************************************************************************************************************
 EE(1)            =     -138.261180936649 AU
 GRADX(1:3)       = [     -0.019820955863    0.026857864023   -0.007036908160] AU
 GRADY(1:3)       = [      0.002256245399    0.041771916033   -0.044028161431] AU
 GRADZ(1:3)       = [      0.000000000000    0.000000000000    0.000000000000] AU

 CCSD(T)-F12/cc-pVDZ-F12 energy=   -138.261180936649

     CCSD(T)-F12          HF-SCF     CCSD(T)-F12          HF-SCF
   -138.26118094   -137.80145014   -138.26118094   -137.80145014
 **********************************************************************************************************************************
 Molpro calculation terminated
