
 Primary working directories    : /scratch/mdavis/molpro_step_2022-08-17_19_32_54/molpro.rFJqfp12jT
 Secondary working directories  : /scratch/mdavis/molpro_step_2022-08-17_19_32_54/molpro.rFJqfp12jT
 Wavefunction directory         : /home/mdavis/f12eom_optimizer/tests/slurm/./
 Main file repository           : /scratch/mdavis/molpro_step_2022-08-17_19_32_54/molpro.rFJqfp12jT/

 id        : olemiss

 Nodes     nprocs
 node17       1

 Using customized tuning parameters: mindgm=1; mindgv=20; mindgc=4; mindgr=1; noblas=0; minvec=7
 default implementation of scratch files=df  


 Variables initialized (945), CPU time= 0.00 sec
 ***,part of geometry opt run
 memory, 2000.0, m;
 gthresh,energy=1.d-12,zero=1.d-22,oneint=1.d-22,twoint=1.d-22;
 gthresh,optgrad=1.d-8,optstep=1.d-8;
 nocompress;
 bohr;
 geometry={
      3
 Fragment 1
     H  -1.5931359383   1.7221723911   0.0000000000
     C   0.4350275843   0.9970318510   0.0000000000
     F   0.2794610886  -1.3989243922   0.0000000000
      }
 
 set,charge=0
 set,spin=0
 basis=vdz-f12
 hf,maxit=500;wf,charge=0,spin=0;accu,20;
 ccsd(t)-f12,maxit=250;wf,charge=0,spin=0;orbital,IGNORE_ERROR;
 ee(1)=energy(2)
 forces,varsav
 SHOW[f18.12],ee(1)
 SHOW[f18.12],GRADX
 SHOW[f18.12],GRADY
 SHOW[f18.12],GRADZ
 Commands  initialized (802), CPU time= 0.00 sec, 659 directives.
 Default parameters read. Elapsed time= 0.21 sec

 Checking input...
 Passed
1


                                         ***  PROGRAM SYSTEM MOLPRO  ***
                                       Copyright, TTI GmbH Stuttgart, 2015
                                    Version 2020.1 linked Oct  6 2020 12:04:11


 **********************************************************************************************************************************
 LABEL *   part of geometry opt run                                                      
  64 bit serial version                                                                  DATE: 17-Aug-22          TIME: 19:32:55  
 **********************************************************************************************************************************

 SHA1:             8c27446f6450a7499e38f603e13c65f775101d37
 **********************************************************************************************************************************

 Memory per process:      2000 MW
 Total memory per node:   2000 MW

 GA preallocation disabled
 GA check disabled

 Variable memory set to 2000.0 MW


 THRESHOLDS:

 ZERO    =  1.00D-22  ONEINT  =  1.00D-22  TWOINT  =  1.00D-22  PREFAC  =  1.00D-14  XXXXXX  =  1.00D-09  EORDER  =  1.00D-04
 ENERGY  =  1.00D-12  ETEST   =  0.00D+00  EDENS   =  0.00D+00  THRDEDEF=  1.00D-06  GRADIENT=  1.00D-05  STEP    =  1.00D-03
 ORBITAL =  1.00D-05  CIVEC   =  1.00D-05  COEFF   =  1.00D-04  PRINTCI =  5.00D-02  PUNCHCI =  9.90D+01  OPTGRAD =  3.00D-04
 OPTENERG=  1.00D-06  OPTSTEP =  3.00D-04  THRGRAD =  1.00D-10  COMPRESS=  1.00D-11  VARMIN  =  1.00D-07  VARMAX  =  1.00D-03
 THRDOUB =  0.00D+00  THRDIV  =  1.00D-05  THRRED  =  1.00D-07  THRPSP  =  1.00D+00  THRDC   =  1.00D-10  THRCS   =  1.00D-10
 THRNRM  =  1.00D-08  THREQ   =  0.00D+00  THRDE   =  1.00D+00  THRREF  =  1.00D-05  SPARFAC =  1.00D+00  THRDLP  =  1.00D-07
 THRDIA  =  1.00D-10  THRDLS  =  1.00D-07  THRGPS  =  0.00D+00  THRKEX  =  0.00D+00  THRDIS  =  2.00D-01  THRVAR  =  1.00D-10
 THRLOC  =  1.00D-06  THRGAP  =  1.00D-06  THRLOCT = -1.00D+00  THRGAPT = -1.00D+00  THRORB  =  1.00D-06  THRMLTP =  0.00D+00
 THRCPQCI=  1.00D-10  KEXTA   =  0.00D+00  THRCOARS=  0.00D+00  SYMTOL  =  1.00D-06  GRADTOL =  1.00D-06  THROVL  =  1.00D-08
 THRORTH =  1.00D-08  GRID    =  1.00D-06  GRIDMAX =  1.00D-03  DTMAX   =  0.00D+00  THROCCDE=  1.00D-01  THROCCDE=  1.00D-01
 THRPRINT=  2.50D-01


 THRESHOLDS:

 ZERO    =  1.00D-22  ONEINT  =  1.00D-22  TWOINT  =  1.00D-22  PREFAC  =  1.00D-14  XXXXXX  =  1.00D-09  EORDER  =  1.00D-04
 ENERGY  =  1.00D-12  ETEST   =  0.00D+00  EDENS   =  0.00D+00  THRDEDEF=  1.00D-06  GRADIENT=  1.00D-05  STEP    =  1.00D-03
 ORBITAL =  1.00D-05  CIVEC   =  1.00D-05  COEFF   =  1.00D-04  PRINTCI =  5.00D-02  PUNCHCI =  9.90D+01  OPTGRAD =  1.00D-08
 OPTENERG=  1.00D-06  OPTSTEP =  1.00D-08  THRGRAD =  1.00D-10  COMPRESS=  1.00D-11  VARMIN  =  1.00D-07  VARMAX  =  1.00D-03
 THRDOUB =  0.00D+00  THRDIV  =  1.00D-05  THRRED  =  1.00D-07  THRPSP  =  1.00D+00  THRDC   =  1.00D-10  THRCS   =  1.00D-10
 THRNRM  =  1.00D-08  THREQ   =  0.00D+00  THRDE   =  1.00D+00  THRREF  =  1.00D-05  SPARFAC =  1.00D+00  THRDLP  =  1.00D-07
 THRDIA  =  1.00D-10  THRDLS  =  1.00D-07  THRGPS  =  0.00D+00  THRKEX  =  0.00D+00  THRDIS  =  2.00D-01  THRVAR  =  1.00D-10
 THRLOC  =  1.00D-06  THRGAP  =  1.00D-06  THRLOCT = -1.00D+00  THRGAPT = -1.00D+00  THRORB  =  1.00D-06  THRMLTP =  0.00D+00
 THRCPQCI=  1.00D-10  KEXTA   =  0.00D+00  THRCOARS=  0.00D+00  SYMTOL  =  1.00D-06  GRADTOL =  1.00D-06  THROVL  =  1.00D-08
 THRORTH =  1.00D-08  GRID    =  1.00D-06  GRIDMAX =  1.00D-03  DTMAX   =  0.00D+00  THROCCDE=  1.00D-01  THROCCDE=  1.00D-01
 THRPRINT=  2.50D-01


 Input parameters for SORTINT:

 COMPRESS =    0.000000
 C_FINAL  =    1.000000
 DEBUG    =   -1.000000
 C_SORT1  =    0.000000
 C_SEWARD =    0.000000
 THRESH   =    0.000000
 IO       =  molpro                                                                                                                          
 SPRI     =    0.000000
 ZUNIT=BOHR


 Geometry recognized as XYZ

 SETTING CHARGE         =     0.00000000D+00                                  
 SETTING SPIN           =     0.00000000D+00                                  
 SETTING BASIS          =    VDZ-F12


 Recomputing integrals since basis changed


 Using spherical harmonics

 Library entry H      S cc-pVDZ-F12          selected for orbital group  1
 Library entry H      P cc-pVDZ-F12          selected for orbital group  1
 Library entry C      S cc-pVDZ-F12          selected for orbital group  2
 Library entry C      P cc-pVDZ-F12          selected for orbital group  2
 Library entry C      D cc-pVDZ-F12          selected for orbital group  2
 Library entry F      S cc-pVDZ-F12          selected for orbital group  3
 Library entry F      P cc-pVDZ-F12          selected for orbital group  3
 Library entry F      D cc-pVDZ-F12          selected for orbital group  3


 PROGRAM * SEWARD (Integral evaluation for generally contracted gaussian basis sets)     Author: Roland Lindh, 1990

 Geometry written to block  1 of record 700


 Point group  Cs  



 ATOMIC COORDINATES

 NR  ATOM    CHARGE       X              Y              Z

   1  H       1.00   -1.593135938    1.722172391    0.000000000
   2  C       6.00    0.435027584    0.997031851    0.000000000
   3  F       9.00    0.279461089   -1.398924392    0.000000000

 Bond lengths in Bohr (Angstrom)

 1-2  2.153897880  2-3  2.401001302
     ( 1.139793673)     ( 1.270555173)

 Bond angles

  1-2-3  105.95884546

 NUCLEAR CHARGE:                   16
 NUMBER OF PRIMITIVE AOS:          93
 NUMBER OF SYMMETRY AOS:           89
 NUMBER OF CONTRACTIONS:           69   (   49A'  +   20A"  )
 NUMBER OF INNER CORE ORBITALS:     0   (    0A'  +    0A"  )
 NUMBER OF OUTER CORE ORBITALS:     2   (    2A'  +    0A"  )
 NUMBER OF VALENCE ORBITALS:        9   (    7A'  +    2A"  )


 NUCLEAR REPULSION ENERGY   27.74895349

 Eigenvalues of metric

         1 0.150E-02 0.301E-02 0.323E-02 0.331E-02 0.413E-02 0.468E-02 0.471E-02 0.915E-02
         2 0.330E-02 0.468E-02 0.782E-01 0.929E-01 0.137E+00 0.168E+00 0.245E+00 0.383E+00


 Contracted 2-electron integrals neglected if value below      1.0D-22

        1426049. INTEGRALS WRITTEN OUT IN     349 BLOCKS ON RECORD 1290 OF FILE 1


 NUMBER OF SORTED TWO-ELECTRON INTEGRALS:    1544830.     BUFFER LENGTH:  32768
 NUMBER OF SEGMENTS:   1  SEGMENT LENGTH:    1544830      RECORD LENGTH: 524288

 Memory used in sort:       2.10 MW

 SORT1 READ     1426049. AND WROTE     1455925. INTEGRALS IN      5 RECORDS. CPU TIME:     0.04 SEC, REAL TIME:     0.04 SEC
 SORT2 READ     1455925. AND WROTE     1544830. INTEGRALS IN      1 RECORDS. CPU TIME:     0.05 SEC, REAL TIME:     0.08 SEC

 FILE SIZES:   FILE 1:    53.0 MBYTE,  FILE 4:    21.0 MBYTE,   TOTAL:     74.0 MBYTE

 OPERATOR DM      FOR CENTER  0  COORDINATES:    0.000000    0.000000    0.000000


 **********************************************************************************************************************************
 DATASETS  * FILE   NREC   LENGTH (MB)   RECORD NAMES
              1      19       42.18       500      610      700      900      950      970     1000      129      960     1100   
                                          VAR    BASINP    GEOM    SYMINP    ZMAT    AOBASIS   BASIS     P2S    ABASIS      S 
                                         1400     1410     1200     1210     1080     1600     1650     1300     1700   
                                           T        V       H0       H01     AOSYM     SMH    MOLCAS    ERIS     OPER   

 PROGRAMS   *        TOTAL       INT
 CPU TIMES  *         1.04      0.90
 REAL TIME  *         2.83 SEC
 DISK USED  *        74.32 MB
 **********************************************************************************************************************************


 PROGRAM * RHF-SCF (CLOSED SHELL)       Authors: W. Meyer, H.-J. Werner


 NUMBER OF ELECTRONS:       8+    8-
 CONVERGENCE THRESHOLDS:    1.00E-10 (Density)    1.00E-13 (Energy)
 MAX. NUMBER OF ITERATIONS:      500
 INTERPOLATION TYPE:            DIIS
 INTERPOLATION STEPS:              2 (START)      1 (STEP)
 LEVEL SHIFTS:                  0.00 (CLOSED)  0.00 (OPEN) 



 Orbital guess generated from atomic densities. Full valence occupancy:    9   2

 Molecular orbital dump at record        2100.2

 Initial occupancy:   7   1

 ITERATION    DDIFF          GRAD             ENERGY        2-EL.EN.            DIPOLE MOMENTS         DIIS   ORB.
    1      0.000D+00      0.000D+00      -137.78053785    157.943203   -0.69075   -0.08807    0.00000    0    start
    2      0.000D+00      0.100D-01      -137.80576104    159.138507   -0.65505   -0.10114    0.00000    1    diag
    3      0.137D-01      0.344D-02      -137.80840724    159.328832   -0.62667    0.00105    0.00000    2    diag
    4      0.374D-02      0.109D-02      -137.80869764    159.145540   -0.62383   -0.00246    0.00000    3    diag
    5      0.108D-02      0.318D-03      -137.80874570    159.214544   -0.62330    0.00887    0.00000    4    diag
    6      0.401D-03      0.745D-04      -137.80875065    159.214826   -0.62260    0.01125    0.00000    5    diag
    7      0.140D-03      0.240D-04      -137.80875114    159.215390   -0.62268    0.01149    0.00000    6    diag
    8      0.525D-04      0.504D-05      -137.80875116    159.215219   -0.62267    0.01143    0.00000    7    diag
    9      0.110D-04      0.921D-06      -137.80875116    159.215239   -0.62269    0.01140    0.00000    8    diag
   10      0.211D-05      0.194D-06      -137.80875116    159.215236   -0.62269    0.01139    0.00000    9    orth
   11      0.537D-06      0.489D-07      -137.80875116    159.215235   -0.62269    0.01139    0.00000    9    diag
   12      0.138D-06      0.103D-07      -137.80875116    159.215235   -0.62269    0.01139    0.00000    9    diag
   13      0.226D-07      0.236D-08      -137.80875116    159.215235   -0.62269    0.01139    0.00000    9    diag
   14      0.511D-08      0.614D-09      -137.80875116    159.215235   -0.62269    0.01139    0.00000    9    diag
   15      0.140D-08      0.131D-09      -137.80875116    159.215235   -0.62269    0.01139    0.00000    9    diag
   16      0.174D-09      0.401D-10      -137.80875116    159.215235   -0.62269    0.01139    0.00000    9    diag
   17      0.675D-10      0.712D-11      -137.80875116    159.215235   -0.62269    0.01139    0.00000    0    orth

 Final occupancy:   7   1

 !RHF STATE  1.1 Energy              -137.808751157705
 Nuclear energy                        27.74895349
 One-electron energy                 -245.16532201
 Two-electron energy                   79.60761736
 Virial quotient                       -1.00049424
 !RHF STATE  1.1 Dipole moment         -0.62269112     0.01138548     0.00000000
 Dipole moment /Debye                  -1.58261929     0.02893712     0.00000000

 Orbital energies:

         1.1          2.1          3.1          4.1          5.1          6.1          7.1          8.1          9.1
    -26.372351   -11.367000    -1.709277    -0.938174    -0.781425    -0.676631    -0.398304     0.070396     0.082654

         1.2          2.2          3.2
     -0.731880     0.047472     0.128138


 HOMO      7.1    -0.398304 =     -10.8384eV
 LUMO      2.2     0.047472 =       1.2918eV
 LUMO-HOMO         0.445776 =      12.1302eV


 **********************************************************************************************************************************
 DATASETS  * FILE   NREC   LENGTH (MB)   RECORD NAMES
              1      19       42.18       500      610      700      900      950      970     1000      129      960     1100   
                                          VAR    BASINP    GEOM    SYMINP    ZMAT    AOBASIS   BASIS     P2S    ABASIS      S 
                                         1400     1410     1200     1210     1080     1600     1650     1300     1700   
                                           T        V       H0       H01     AOSYM     SMH    MOLCAS    ERIS     OPER   

              2       4        2.84       700     1000      520     2100   
                                         GEOM     BASIS   MCVARS     RHF  

 PROGRAMS   *        TOTAL    HF-SCF       INT
 CPU TIMES  *         1.31      0.27      0.90
 REAL TIME  *         3.22 SEC
 DISK USED  *        74.32 MB
 **********************************************************************************************************************************


 PROGRAM * CCSD (Closed-shell coupled cluster)     Authors: C. Hampel, H.-J. Werner, 1991, M. Deegan, P.J. Knowles, 1992

                                  CCSD-F12 implementation by  H.-J. Werner, 2007

                   Density fitting integral evaluation by F.R. Manby, 2003,2007, G. Knizia, 2010


 Basis set AUG-CC-PVDZ/JKFIT generated.  Number of basis functions:   204 
 Basis set CC-PVDZ-F12/OPTRI generated.  Number of basis functions:   154 
 Basis set AUG-CC-PVDZ/MP2FIT generated. Number of basis functions:   167 

 Convergence thresholds:  THRVAR = 1.00D-16  THRDEN = 1.00D-12

 CCSD(T)     terms to be evaluated (factor= 1.000)


 Number of core orbitals:           2 (   2   0 )
 Number of closed-shell orbitals:   6 (   5   1 )
 Number of external orbitals:      61 (  42  19 )

 Molecular orbitals read from record     2100.2  Type=RHF/CANONICAL (state 1.1)

 MP2-F12 correlation treatment (H.-J. Werner, 2006)
 ==================================================

 Using MP2-F12 with ansatz 3C(FIX)

 Using projected zeroth-order Hamiltonian (+Z)

 FOCKRIB=T FOCKRIC=T FOCKRIP=T CABSP=T CABSA=T CABSK=T CABSF=T GBC=F EBC=F DMAT=T NOFIK=T NOPAO=1 SOLVE=-1  USEPAO=0
 EXCH_A= T EXCH_B= F EXCH_C= F EXCH_P= F

 Geminal basis:    OPTFULL  GEM_TYPE=SLATER  BETA=1.0  NGEM=6

 Optimizing Gaussian exponents for each gem_beta

 Geminal optimization for beta= 1.0000
 Weight function:   m=0, omega= 1.4646

 Augmented Hessian optimization of geminal fit. Trust ratio= 0.40000
 Convergence reached after   2 iterations. Final gradient= 8.66D-16, Step= 4.23D-06, Delta= 1.28D-09

 Alpha:                 0.19532     0.81920     2.85917     9.50073    35.69989   197.79328
 Coeff:                 0.27070     0.30552     0.18297     0.10986     0.06810     0.04224


 Symmetry turned off. Reference energy:       -137.808751157705

 All pairs explicitly correlated. Number of r12-pairs:           21

 Excluding core orbitals from MO domains

 AO(A)-basis ORBITAL           loaded. Number of functions:      69
 RI(R)-basis CC-PVDZ-F12/OPTRI loaded. Number of functions:     154
 DF-basis AUG-CC-PVDZ/JKFIT    loaded. Number of functions:     204

 Screening thresholds:   THRAO=  1.00D-10  THRMO=  1.00D-10  THRPROD=  1.00D-10
                         THRSW=  1.00D-07  THROV=  1.00D-12  THRAOF12= 1.00D-08

 CPU time for Fock operators                      0.94 sec

 Construction of ABS:
 Smallest eigenvalue of S          3.66E-03  (threshold= 1.00E-08)
 Ratio eigmin/eigmax               7.70E-04  (threshold= 1.00E-09)
 Smallest eigenvalue of S kept     3.66E-03  (threshold= 3.66E-03, 0 functions deleted, 154 kept)

 Construction of CABS:
 Smallest eigenvalue of S          9.79E-06  (threshold= 1.00E-08)
 Ratio eigmin/eigmax               9.79E-06  (threshold= 1.00E-09)
 Smallest eigenvalue of S kept     9.79E-06  (threshold= 9.79E-06, 0 functions deleted, 154 kept)

 CPU time for CABS singles                        0.01 sec

 CABS-singles contribution of  -0.00657390 patched into reference energy.
 New reference energy        -137.81532506

 AO(A)-basis ORBITAL           loaded. Number of functions:      69
 RI(R)-basis CC-PVDZ-F12/OPTRI loaded. Number of functions:     154
 DF-basis AUG-CC-PVDZ/MP2FIT   loaded. Number of functions:     167

 Screening thresholds:   THRAO=  1.00D-10  THRMO=  1.00D-10  THRPROD=  1.00D-10
                         THRSW=  1.00D-07  THROV=  1.00D-12  THRAOF12= 1.00D-08

 CPU time for 3-index integral evaluation         0.41 sec
 CPU time for first  half transformation          0.04 sec ( 3799.1 MFLOP/sec)
 CPU time for fitting                             0.01 sec ( 8266.3 MFLOP/sec)
 CPU time for assembly                            0.04 sec (19371.9 MFLOP/sec)
 CPU time for tranop_f12                          0.03 sec (34833.1 MFLOP/sec)
 CPU time for f12 integrals (total)               1.23 sec, Elapsed time:      1.32 sec
 CPU time for f12 matrices (total)                0.01 sec, Elapsed time:      0.03 sec

 Diagonal F12 approximation with fixed coefficients:  TSING= 0.500,  TTRIP= 0.250 (scaled by -1/beta)

 DF-MP2-F12 energy corrections:
 ==============================
 Approx.                                    Singlet             Triplet             Total
 DF-MP2-F12/3*C(DX,FIX)                -0.078273776655     -0.016339674625     -0.094613451280
 DF-MP2-F12/3*C(FIX)                   -0.068978809306     -0.015354045924     -0.084332855229
 DF-MP2-F12/3C(FIX)                    -0.069670937194     -0.016154947959     -0.085825885152

 DF-MP2-F12 correlation energies:
 ================================
 Approx.                                    Singlet             Triplet             Ecorr            Total Energy
 DF-MP2                                -0.222908800791     -0.131440419284     -0.354349220075   -138.169674279309
 DF-MP2-F12/3*C(DX,FIX)                -0.301182577447     -0.147780093908     -0.448962671355   -138.264287730589
 DF-MP2-F12/3*C(FIX)                   -0.291887610097     -0.146794465207     -0.438682075304   -138.254007134538
 DF-MP2-F12/3C(FIX)                    -0.292579737985     -0.147595367243     -0.440175105228   -138.255500164461

 SCS-DF-MP2 energies (F_SING= 1.20000  F_TRIP= 0.62222  F_PARALLEL= 0.33333):
 ============================================================================
 SCS-DF-MP2                            -0.349275710726   -138.164600769960
 SCS-DF-MP2-F12/3*C(DX,FIX)            -0.453371151368   -138.268696210601
 SCS-DF-MP2-F12/3*C(FIX)               -0.441603910468   -138.256928969701
 SCS-DF-MP2-F12/3C(FIX)                -0.442932802977   -138.258257862211

 Symmetry restored.
 Symmetry transformation completed.

 Number of N-1 electron functions:               6
 Number of N-2 electron functions:              21
 Number of singly external CSFs:               229
 Number of doubly external CSFs:             35788
 Total number of CSFs:                       36018

 Length of J-op  integral file:              15.24 MB
 Length of K-op  integral file:              18.55 MB
 Length of 3-ext integral record:             0.00 MB

 Memory could be reduced to 1.16 Mwords without degradation in triples

 Integral transformation finished. Total CPU:   0.04 sec, npass=  1  Memory used:   0.52 MW

 Reference energy:                   -137.81532506

 Adding F12 terms to K(Cij), methodcc=6,  factor= 1.0

 ITER.      SQ.NORM     CORR.ENERGY   TOTAL ENERGY   ENERGY CHANGE        DEN1      VAR(S)    VAR(P)  DIIS     TIME  TIME/IT
   1      1.09178195    -0.36098568  -138.17631074    -0.00654181     0.00479369  0.25D-02  0.21D-02  1  1     2.32     0.05
   2      1.10107008    -0.36173293  -138.17705799    -0.00074726    -0.00894809  0.76D-04  0.49D-03  2  2     2.37     0.06
   3      1.10726900    -0.36250010  -138.17782516    -0.00076716    -0.00246722  0.82D-04  0.78D-04  3  3     2.43     0.06
   4      1.11096296    -0.36268056  -138.17800562    -0.00018046    -0.00127389  0.64D-05  0.20D-04  4  4     2.48     0.06
   5      1.11289284    -0.36272617  -138.17805123    -0.00004561    -0.00033323  0.72D-06  0.38D-05  5  5     2.53     0.06
   6      1.11360972    -0.36272242  -138.17804748     0.00000375    -0.00005005  0.12D-06  0.61D-06  6  6     2.57     0.06
   7      1.11376004    -0.36272694  -138.17805200    -0.00000452    -0.00001372  0.67D-07  0.81D-07  6  2     2.63     0.06
   8      1.11376668    -0.36272840  -138.17805346    -0.00000146     0.00000564  0.89D-08  0.13D-07  6  1     2.68     0.06
   9      1.11377332    -0.36272893  -138.17805399    -0.00000053    -0.00000173  0.30D-08  0.15D-08  6  3     2.73     0.06
  10      1.11376967    -0.36272942  -138.17805448    -0.00000049     0.00000199  0.29D-09  0.25D-09  6  4     2.79     0.06
  11      1.11376811    -0.36272947  -138.17805453    -0.00000005     0.00000043  0.82D-10  0.27D-10  6  5     2.83     0.06
  12      1.11376727    -0.36272954  -138.17805460    -0.00000007     0.00000035  0.98D-11  0.60D-11  6  6     2.88     0.06
  13      1.11376684    -0.36272955  -138.17805461    -0.00000001     0.00000006  0.23D-11  0.13D-11  6  2     2.94     0.06
  14      1.11376655    -0.36272955  -138.17805461    -0.00000001     0.00000005  0.24D-12  0.45D-12  6  1     2.99     0.06
  15      1.11376638    -0.36272956  -138.17805462    -0.00000000     0.00000001  0.24D-13  0.15D-12  6  3     3.03     0.06
  16      1.11376629    -0.36272956  -138.17805462    -0.00000000     0.00000001  0.53D-14  0.44D-13  6  4     3.08     0.06
  17      1.11376623    -0.36272956  -138.17805462    -0.00000000     0.00000001  0.46D-14  0.72D-14  6  5     3.13     0.06
  18      1.11376621    -0.36272956  -138.17805462     0.00000000     0.00000000  0.78D-15  0.98D-15  6  6     3.17     0.06
  19      1.11376621    -0.36272956  -138.17805462    -0.00000000     0.00000000  0.12D-15  0.13D-15  6  1     3.23     0.06
  20      1.11376621    -0.36272956  -138.17805462     0.00000000    -0.00000000  0.60D-17  0.84D-17  6  5     3.27     0.06
  21      1.11376621    -0.36272956  -138.17805462    -0.00000000     0.00000000  0.10D-17  0.68D-18  6  2     3.32     0.06
  22      1.11376621    -0.36272956  -138.17805462    -0.00000000     0.00000000  0.19D-18  0.87D-19  6  3     3.38     0.06
  23      1.11376621    -0.36272956  -138.17805462    -0.00000000     0.00000000  0.51D-19  0.13D-19  6  4     3.42     0.06
  24      1.11376621    -0.36272956  -138.17805462    -0.00000000     0.00000000  0.11D-19  0.37D-20  6  6     3.48     0.06
  25      1.11376621    -0.36272956  -138.17805462     0.00000000    -0.00000000  0.12D-20  0.73D-21  6  1     3.52     0.06
  26      1.11376621    -0.36272956  -138.17805462     0.00000000    -0.00000000  0.10D-21  0.19D-21  6  5     3.56     0.06

 Norm of t1 vector:      0.07660195      S-energy:     0.00000000      T1 diagnostic:  0.01563631
                                                                       D1 diagnostic:  0.04540628

 Adding energy correction from Wij-K(Fij), methodcc=6  factor= 1.0

  CCSD correlation energy              -0.362729558155
  MP2-F12 correction (uncoupled)       -0.080955547103
  C*T doubles correction               -0.002730283139
  f12b correction                       0.010126850954


 Total CPU time for triples:      0.26 sec


 RESULTS
 =======

  Reference energy                   -137.808751157705
  F12 singles correction               -0.006573901529

 F12 singles corrections added to reference energy

  New reference energy               -137.815325059234

  F12a singlet correction              -0.068260862225
  F12a triplet correction              -0.015424968018
  F12a total correction                -0.083685830242

 F12a corrections for ansatz F12/3C(FIX) added to CCSD energy

  CCSD-F12a singlet pair energy        -0.312495654558
  CCSD-F12a triplet pair energy        -0.133919733839
  CCSD-F12a correlation energy         -0.446415388397

  Triples (T) contribution             -0.012206687113
  Total correlation energy             -0.458622075510

  CCSD-F12a total energy             -138.261740447630
  CCSD[T]-F12a energy                -138.274953760817
  CCSD-T-F12a energy                 -138.273605126536
 !CCSD(T)-F12a total energy          -138.273947134744

 F12b corrections for ansatz F12/3C(FIX) added to CCSD(T)-F12a energy

  CCSD-F12b singlet pair energy        -0.303342672558
  CCSD-F12b triplet pair energy        -0.132945864885
  CCSD-F12b correlation energy         -0.436288537442

  Triples (T) contribution             -0.012206687113
  Total correlation energy             -0.448495224556

  CCSD-F12b total energy             -138.251613596676
  CCSD[T]-F12b energy                -138.264826909863
  CCSD-T-F12b energy                 -138.263478275582
 !CCSD(T)-F12b total energy          -138.263820283789

 Timing summary (sec):

 STEP                 CPU(USER)    SYS     CPU(TOT)    WALL
 Transformation          0.04      0.03      0.07      0.07
 CCSD iterations         1.31      0.18      1.49      1.89
 Triples                 0.26      0.02      0.28      0.27
 MP2-F12                 2.21      0.12      2.33      3.85
 F12b energy             0.03      0.00      0.03      0.04

 Program statistics:

 Available memory in ccsd:              1999999744
 Min. memory needed in ccsd:                136839
 Max. memory used in ccsd:                  163083
 Max. memory used in cckext:                208330 (27 integral passes)



 **********************************************************************************************************************************
 DATASETS  * FILE   NREC   LENGTH (MB)   RECORD NAMES
              1      20       45.77       500      610      700      900      950      970     1000      129      960     1100   
                                          VAR    BASINP    GEOM    SYMINP    ZMAT    AOBASIS   BASIS     P2S    ABASIS      S 
                                         1400     1410     1200     1210     1080     1600     1650     1300     1700     1380   
                                           T        V       H0       H01     AOSYM     SMH    MOLCAS    ERIS     OPER     JKOP   

              2       6        2.90       700     1000      520     2100     7360     7350   
                                         GEOM     BASIS   MCVARS     RHF    F12ABS    EF12   

 PROGRAMS   *        TOTAL   CCSD(T)    HF-SCF       INT
 CPU TIMES  *         5.19      3.88      0.27      0.90
 REAL TIME  *         9.38 SEC
 DISK USED  *        97.74 MB
 **********************************************************************************************************************************
 SETTING EE(1)          =      -138.26382028  AU                              


 Computing numerical gradient using default procedure for command CCSD(T)-F12

 *** Long output written to logfile /home/mdavis/f12eom_optimizer/tests/slurm/molpro_step.log ***


 Running default procedure: HF-SCF000  CCSD(T)-F12


 Generated   3 symmetrical displacements

 Numerical gradient for CCSD(T)-F12

 Total Energy          -138.26382028  Dipole moments:    0.000000    0.000000    0.000000

 Atom          dE/dx               dE/dy               dE/dz                  d2E/dx2             d2E/dy2             d2E/dz2
   1        -0.005486595         0.009125001         0.000000000            0.000000000         0.000000000         0.000000000
   2        -0.002505854        -0.038830082         0.000000000            0.000000000         0.000000000         0.000000000
   3         0.007992449         0.029705081         0.000000000            0.000000000         0.000000000         0.000000000

 Recomputing wavefunction at initial geometry


 **********************************************************************************************************************************
 DATASETS  * FILE   NREC   LENGTH (MB)   RECORD NAMES
              1      21       45.99       500      610      700      900      701      950      970     1000      129      960   
                                          VAR    BASINP    GEOM    SYMINP    GEOM     ZMAT    AOBASIS   BASIS     P2S    ABASIS    
                                         1100     1400     1410     1200     1210     1080     1600     1650     1300     1700   
                                           S        T        V       H0       H01     AOSYM     SMH    MOLCAS    ERIS     OPER   
                                         1380   
                                         JKOP   

              2       8        3.12       700     1000      520     2100     7360     7350      701     5600   
                                         GEOM     BASIS   MCVARS     RHF    F12ABS    EF12     GEOM     GINFO   

 PROGRAMS   *        TOTAL    FORCES    HF-SCF       INT   CCSD(T)    HF-SCF       INT
 CPU TIMES  *        41.12      3.92      0.04     31.95      3.88      0.27      0.90
 REAL TIME  *        52.90 SEC
 DISK USED  *       100.73 MB
 **********************************************************************************************************************************
 EE(1)            =     -138.263820283790 AU
 GRADX(1:3)       = [     -0.005486594676   -0.002505853987    0.007992448663] AU
 GRADY(1:3)       = [      0.009125001013   -0.038830081662    0.029705080649] AU
 GRADZ(1:3)       = [      0.000000000000    0.000000000000    0.000000000000] AU

 CCSD(T)-F12/cc-pVDZ-F12 energy=   -138.263820283790

     CCSD(T)-F12          HF-SCF     CCSD(T)-F12          HF-SCF
   -138.26382028   -137.80875116   -138.26382028   -137.80875116
 **********************************************************************************************************************************
 Molpro calculation terminated
