
 Primary working directories    : /scratch/mdavis/molpro_step_2022-08-17_18_07_13/molpro.94H0QwMihp
 Secondary working directories  : /scratch/mdavis/molpro_step_2022-08-17_18_07_13/molpro.94H0QwMihp
 Wavefunction directory         : /home/mdavis/f12eom_optimizer/tests/slurm/./
 Main file repository           : /scratch/mdavis/molpro_step_2022-08-17_18_07_13/molpro.94H0QwMihp/

 id        : olemiss

 Nodes     nprocs
 node17       1

 Using customized tuning parameters: mindgm=1; mindgv=20; mindgc=4; mindgr=1; noblas=0; minvec=7
 default implementation of scratch files=df  


 Variables initialized (945), CPU time= 0.00 sec
 ***,part of geometry opt run
 memory, 2000.0, m;
 gthresh,energy=1.d-12,zero=1.d-22,oneint=1.d-22,twoint=1.d-22;
 gthresh,optgrad=1.d-8,optstep=1.d-8;
 nocompress;
 bohr;
 geometry={
      3
 Fragment 1
     H  -1.6052013038   1.6828091274   0.0000000000
     C   0.4903433682   1.1291889538   0.0000000000
     F   0.2362106702  -1.4917182312   0.0000000000
      }
 
 set,charge=0
 set,spin=0
 basis=vdz-f12
 hf,maxit=500;wf,charge=0,spin=0;accu,20;
 ccsd(t)-f12,maxit=250;wf,charge=0,spin=0;orbital,IGNORE_ERROR;
 ee(1)=energy(2)
 forces,varsav
 SHOW[f18.12],ee(1)
 SHOW[f18.12],GRADX
 SHOW[f18.12],GRADY
 SHOW[f18.12],GRADZ
 Commands  initialized (802), CPU time= 0.01 sec, 659 directives.
 Default parameters read. Elapsed time= 0.10 sec

 Checking input...
 Passed
1


                                         ***  PROGRAM SYSTEM MOLPRO  ***
                                       Copyright, TTI GmbH Stuttgart, 2015
                                    Version 2020.1 linked Oct  6 2020 12:04:11


 **********************************************************************************************************************************
 LABEL *   part of geometry opt run                                                      
  64 bit serial version                                                                  DATE: 17-Aug-22          TIME: 18:07:14  
 **********************************************************************************************************************************

 SHA1:             8c27446f6450a7499e38f603e13c65f775101d37
 **********************************************************************************************************************************

 Memory per process:      2000 MW
 Total memory per node:   2000 MW

 GA preallocation disabled
 GA check disabled

 Variable memory set to 2000.0 MW


 THRESHOLDS:

 ZERO    =  1.00D-22  ONEINT  =  1.00D-22  TWOINT  =  1.00D-22  PREFAC  =  1.00D-14  XXXXXX  =  1.00D-09  EORDER  =  1.00D-04
 ENERGY  =  1.00D-12  ETEST   =  0.00D+00  EDENS   =  0.00D+00  THRDEDEF=  1.00D-06  GRADIENT=  1.00D-05  STEP    =  1.00D-03
 ORBITAL =  1.00D-05  CIVEC   =  1.00D-05  COEFF   =  1.00D-04  PRINTCI =  5.00D-02  PUNCHCI =  9.90D+01  OPTGRAD =  3.00D-04
 OPTENERG=  1.00D-06  OPTSTEP =  3.00D-04  THRGRAD =  1.00D-10  COMPRESS=  1.00D-11  VARMIN  =  1.00D-07  VARMAX  =  1.00D-03
 THRDOUB =  0.00D+00  THRDIV  =  1.00D-05  THRRED  =  1.00D-07  THRPSP  =  1.00D+00  THRDC   =  1.00D-10  THRCS   =  1.00D-10
 THRNRM  =  1.00D-08  THREQ   =  0.00D+00  THRDE   =  1.00D+00  THRREF  =  1.00D-05  SPARFAC =  1.00D+00  THRDLP  =  1.00D-07
 THRDIA  =  1.00D-10  THRDLS  =  1.00D-07  THRGPS  =  0.00D+00  THRKEX  =  0.00D+00  THRDIS  =  2.00D-01  THRVAR  =  1.00D-10
 THRLOC  =  1.00D-06  THRGAP  =  1.00D-06  THRLOCT = -1.00D+00  THRGAPT = -1.00D+00  THRORB  =  1.00D-06  THRMLTP =  0.00D+00
 THRCPQCI=  1.00D-10  KEXTA   =  0.00D+00  THRCOARS=  0.00D+00  SYMTOL  =  1.00D-06  GRADTOL =  1.00D-06  THROVL  =  1.00D-08
 THRORTH =  1.00D-08  GRID    =  1.00D-06  GRIDMAX =  1.00D-03  DTMAX   =  0.00D+00  THROCCDE=  1.00D-01  THROCCDE=  1.00D-01
 THRPRINT=  2.50D-01


 THRESHOLDS:

 ZERO    =  1.00D-22  ONEINT  =  1.00D-22  TWOINT  =  1.00D-22  PREFAC  =  1.00D-14  XXXXXX  =  1.00D-09  EORDER  =  1.00D-04
 ENERGY  =  1.00D-12  ETEST   =  0.00D+00  EDENS   =  0.00D+00  THRDEDEF=  1.00D-06  GRADIENT=  1.00D-05  STEP    =  1.00D-03
 ORBITAL =  1.00D-05  CIVEC   =  1.00D-05  COEFF   =  1.00D-04  PRINTCI =  5.00D-02  PUNCHCI =  9.90D+01  OPTGRAD =  1.00D-08
 OPTENERG=  1.00D-06  OPTSTEP =  1.00D-08  THRGRAD =  1.00D-10  COMPRESS=  1.00D-11  VARMIN  =  1.00D-07  VARMAX  =  1.00D-03
 THRDOUB =  0.00D+00  THRDIV  =  1.00D-05  THRRED  =  1.00D-07  THRPSP  =  1.00D+00  THRDC   =  1.00D-10  THRCS   =  1.00D-10
 THRNRM  =  1.00D-08  THREQ   =  0.00D+00  THRDE   =  1.00D+00  THRREF  =  1.00D-05  SPARFAC =  1.00D+00  THRDLP  =  1.00D-07
 THRDIA  =  1.00D-10  THRDLS  =  1.00D-07  THRGPS  =  0.00D+00  THRKEX  =  0.00D+00  THRDIS  =  2.00D-01  THRVAR  =  1.00D-10
 THRLOC  =  1.00D-06  THRGAP  =  1.00D-06  THRLOCT = -1.00D+00  THRGAPT = -1.00D+00  THRORB  =  1.00D-06  THRMLTP =  0.00D+00
 THRCPQCI=  1.00D-10  KEXTA   =  0.00D+00  THRCOARS=  0.00D+00  SYMTOL  =  1.00D-06  GRADTOL =  1.00D-06  THROVL  =  1.00D-08
 THRORTH =  1.00D-08  GRID    =  1.00D-06  GRIDMAX =  1.00D-03  DTMAX   =  0.00D+00  THROCCDE=  1.00D-01  THROCCDE=  1.00D-01
 THRPRINT=  2.50D-01


 Input parameters for SORTINT:

 COMPRESS =    0.000000
 C_FINAL  =    1.000000
 DEBUG    =   -1.000000
 C_SORT1  =    0.000000
 C_SEWARD =    0.000000
 THRESH   =    0.000000
 IO       =  molpro                                                                                                                          
 SPRI     =    0.000000
 ZUNIT=BOHR


 Geometry recognized as XYZ

 SETTING CHARGE         =     0.00000000D+00                                  
 SETTING SPIN           =     0.00000000D+00                                  
 SETTING BASIS          =    VDZ-F12


 Recomputing integrals since basis changed


 Using spherical harmonics

 Library entry H      S cc-pVDZ-F12          selected for orbital group  1
 Library entry H      P cc-pVDZ-F12          selected for orbital group  1
 Library entry C      S cc-pVDZ-F12          selected for orbital group  2
 Library entry C      P cc-pVDZ-F12          selected for orbital group  2
 Library entry C      D cc-pVDZ-F12          selected for orbital group  2
 Library entry F      S cc-pVDZ-F12          selected for orbital group  3
 Library entry F      P cc-pVDZ-F12          selected for orbital group  3
 Library entry F      D cc-pVDZ-F12          selected for orbital group  3


 PROGRAM * SEWARD (Integral evaluation for generally contracted gaussian basis sets)     Author: Roland Lindh, 1990

 Geometry written to block  1 of record 700


 Point group  Cs  



 ATOMIC COORDINATES

 NR  ATOM    CHARGE       X              Y              Z

   1  H       1.00   -1.605201304    1.682809127    0.000000000
   2  C       6.00    0.490343368    1.129188954    0.000000000
   3  F       9.00    0.236210670   -1.491718231    0.000000000

 Bond lengths in Bohr (Angstrom)

 1-2  2.167441526  2-3  2.633199176
     ( 1.146960662)     ( 1.393428996)

 Bond angles

  1-2-3   99.26051506

 NUCLEAR CHARGE:                   16
 NUMBER OF PRIMITIVE AOS:          93
 NUMBER OF SYMMETRY AOS:           89
 NUMBER OF CONTRACTIONS:           69   (   49A'  +   20A"  )
 NUMBER OF INNER CORE ORBITALS:     0   (    0A'  +    0A"  )
 NUMBER OF OUTER CORE ORBITALS:     2   (    2A'  +    0A"  )
 NUMBER OF VALENCE ORBITALS:        9   (    7A'  +    2A"  )


 NUCLEAR REPULSION ENERGY   25.72797424

 Eigenvalues of metric

         1 0.210E-02 0.323E-02 0.328E-02 0.403E-02 0.436E-02 0.468E-02 0.476E-02 0.986E-02
         2 0.330E-02 0.469E-02 0.881E-01 0.983E-01 0.143E+00 0.191E+00 0.258E+00 0.394E+00


 Contracted 2-electron integrals neglected if value below      1.0D-22

        1426049. INTEGRALS WRITTEN OUT IN     349 BLOCKS ON RECORD 1290 OF FILE 1


 NUMBER OF SORTED TWO-ELECTRON INTEGRALS:    1544830.     BUFFER LENGTH:  32768
 NUMBER OF SEGMENTS:   1  SEGMENT LENGTH:    1544830      RECORD LENGTH: 524288

 Memory used in sort:       2.10 MW

 SORT1 READ     1426049. AND WROTE     1455925. INTEGRALS IN      5 RECORDS. CPU TIME:     0.03 SEC, REAL TIME:     0.04 SEC
 SORT2 READ     1455925. AND WROTE     1544830. INTEGRALS IN      1 RECORDS. CPU TIME:     0.04 SEC, REAL TIME:     0.07 SEC

 FILE SIZES:   FILE 1:    53.0 MBYTE,  FILE 4:    21.0 MBYTE,   TOTAL:     74.0 MBYTE

 OPERATOR DM      FOR CENTER  0  COORDINATES:    0.000000    0.000000    0.000000


 **********************************************************************************************************************************
 DATASETS  * FILE   NREC   LENGTH (MB)   RECORD NAMES
              1      19       42.18       500      610      700      900      950      970     1000      129      960     1100   
                                          VAR    BASINP    GEOM    SYMINP    ZMAT    AOBASIS   BASIS     P2S    ABASIS      S 
                                         1400     1410     1200     1210     1080     1600     1650     1300     1700   
                                           T        V       H0       H01     AOSYM     SMH    MOLCAS    ERIS     OPER   

 PROGRAMS   *        TOTAL       INT
 CPU TIMES  *         0.99      0.85
 REAL TIME  *         2.64 SEC
 DISK USED  *        74.32 MB
 **********************************************************************************************************************************


 PROGRAM * RHF-SCF (CLOSED SHELL)       Authors: W. Meyer, H.-J. Werner


 NUMBER OF ELECTRONS:       8+    8-
 CONVERGENCE THRESHOLDS:    1.00E-10 (Density)    1.00E-13 (Energy)
 MAX. NUMBER OF ITERATIONS:      500
 INTERPOLATION TYPE:            DIIS
 INTERPOLATION STEPS:              2 (START)      1 (STEP)
 LEVEL SHIFTS:                  0.00 (CLOSED)  0.00 (OPEN) 



 Orbital guess generated from atomic densities. Full valence occupancy:    9   2

 Molecular orbital dump at record        2100.2

 Initial occupancy:   7   1

 ITERATION    DDIFF          GRAD             ENERGY        2-EL.EN.            DIPOLE MOMENTS         DIIS   ORB.
    1      0.000D+00      0.000D+00      -137.76404078    155.150053   -0.64182    0.36181    0.00000    0    start
    2      0.000D+00      0.114D-01      -137.79374726    155.342352   -0.65047    0.13244    0.00000    1    diag
    3      0.171D-01      0.578D-02      -137.80034491    156.154662   -0.60682    0.31037    0.00000    2    diag
    4      0.554D-02      0.150D-02      -137.80083042    155.874006   -0.60063    0.30275    0.00000    3    diag
    5      0.126D-02      0.299D-03      -137.80089854    155.924263   -0.59943    0.31260    0.00000    4    diag
    6      0.482D-03      0.859D-04      -137.80090651    155.926328   -0.59858    0.31458    0.00000    5    diag
    7      0.171D-03      0.300D-04      -137.80090747    155.926434   -0.59866    0.31434    0.00000    6    diag
    8      0.749D-04      0.652D-05      -137.80090751    155.926249   -0.59866    0.31408    0.00000    7    diag
    9      0.166D-04      0.139D-05      -137.80090752    155.926255   -0.59867    0.31401    0.00000    8    diag
   10      0.312D-05      0.345D-06      -137.80090752    155.926244   -0.59867    0.31399    0.00000    9    orth
   11      0.943D-06      0.820D-07      -137.80090752    155.926242   -0.59867    0.31398    0.00000    9    diag
   12      0.223D-06      0.177D-07      -137.80090752    155.926242   -0.59867    0.31398    0.00000    9    diag
   13      0.421D-07      0.473D-08      -137.80090752    155.926242   -0.59867    0.31398    0.00000    9    diag
   14      0.118D-07      0.145D-08      -137.80090752    155.926242   -0.59867    0.31398    0.00000    9    diag
   15      0.264D-08      0.253D-09      -137.80090752    155.926242   -0.59867    0.31398    0.00000    9    diag
   16      0.381D-09      0.632D-10      -137.80090752    155.926242   -0.59867    0.31398    0.00000    9    diag
   17      0.128D-09      0.145D-10      -137.80090752    155.926242   -0.59867    0.31398    0.00000    9    diag
   18      0.352D-10      0.273D-11      -137.80090752    155.926242   -0.59867    0.31398    0.00000    0    orth

 Final occupancy:   7   1

 !RHF STATE  1.1 Energy              -137.800907515969
 Nuclear energy                        25.72797424
 One-electron energy                 -241.49200267
 Two-electron energy                   77.96312091
 Virial quotient                       -1.00207575
 !RHF STATE  1.1 Dipole moment         -0.59867194     0.31398386     0.00000000
 Dipole moment /Debye                  -1.52157262     0.79801509     0.00000000

 Orbital energies:

         1.1          2.1          3.1          4.1          5.1          6.1          7.1          8.1          9.1
    -26.340446   -11.392414    -1.636610    -0.913122    -0.731660    -0.652712    -0.430828     0.070569     0.081873

         1.2          2.2          3.2
     -0.685089     0.033159     0.118131


 HOMO      7.1    -0.430828 =     -11.7234eV
 LUMO      2.2     0.033159 =       0.9023eV
 LUMO-HOMO         0.463987 =      12.6257eV


 **********************************************************************************************************************************
 DATASETS  * FILE   NREC   LENGTH (MB)   RECORD NAMES
              1      19       42.18       500      610      700      900      950      970     1000      129      960     1100   
                                          VAR    BASINP    GEOM    SYMINP    ZMAT    AOBASIS   BASIS     P2S    ABASIS      S 
                                         1400     1410     1200     1210     1080     1600     1650     1300     1700   
                                           T        V       H0       H01     AOSYM     SMH    MOLCAS    ERIS     OPER   

              2       4        2.84       700     1000      520     2100   
                                         GEOM     BASIS   MCVARS     RHF  

 PROGRAMS   *        TOTAL    HF-SCF       INT
 CPU TIMES  *         1.27      0.28      0.85
 REAL TIME  *         2.98 SEC
 DISK USED  *        74.32 MB
 **********************************************************************************************************************************


 PROGRAM * CCSD (Closed-shell coupled cluster)     Authors: C. Hampel, H.-J. Werner, 1991, M. Deegan, P.J. Knowles, 1992

                                  CCSD-F12 implementation by  H.-J. Werner, 2007

                   Density fitting integral evaluation by F.R. Manby, 2003,2007, G. Knizia, 2010


 Basis set AUG-CC-PVDZ/JKFIT generated.  Number of basis functions:   204 
 Basis set CC-PVDZ-F12/OPTRI generated.  Number of basis functions:   154 
 Basis set AUG-CC-PVDZ/MP2FIT generated. Number of basis functions:   167 

 Convergence thresholds:  THRVAR = 1.00D-16  THRDEN = 1.00D-12

 CCSD(T)     terms to be evaluated (factor= 1.000)


 Number of core orbitals:           2 (   2   0 )
 Number of closed-shell orbitals:   6 (   5   1 )
 Number of external orbitals:      61 (  42  19 )

 Molecular orbitals read from record     2100.2  Type=RHF/CANONICAL (state 1.1)

 MP2-F12 correlation treatment (H.-J. Werner, 2006)
 ==================================================

 Using MP2-F12 with ansatz 3C(FIX)

 Using projected zeroth-order Hamiltonian (+Z)

 FOCKRIB=T FOCKRIC=T FOCKRIP=T CABSP=T CABSA=T CABSK=T CABSF=T GBC=F EBC=F DMAT=T NOFIK=T NOPAO=1 SOLVE=-1  USEPAO=0
 EXCH_A= T EXCH_B= F EXCH_C= F EXCH_P= F

 Geminal basis:    OPTFULL  GEM_TYPE=SLATER  BETA=1.0  NGEM=6

 Optimizing Gaussian exponents for each gem_beta

 Geminal optimization for beta= 1.0000
 Weight function:   m=0, omega= 1.4646

 Augmented Hessian optimization of geminal fit. Trust ratio= 0.40000
 Convergence reached after   2 iterations. Final gradient= 8.66D-16, Step= 4.23D-06, Delta= 1.28D-09

 Alpha:                 0.19532     0.81920     2.85917     9.50073    35.69989   197.79328
 Coeff:                 0.27070     0.30552     0.18297     0.10986     0.06810     0.04224


 Symmetry turned off. Reference energy:       -137.800907515969

 All pairs explicitly correlated. Number of r12-pairs:           21

 Excluding core orbitals from MO domains

 AO(A)-basis ORBITAL           loaded. Number of functions:      69
 RI(R)-basis CC-PVDZ-F12/OPTRI loaded. Number of functions:     154
 DF-basis AUG-CC-PVDZ/JKFIT    loaded. Number of functions:     204

 Screening thresholds:   THRAO=  1.00D-10  THRMO=  1.00D-10  THRPROD=  1.00D-10
                         THRSW=  1.00D-07  THROV=  1.00D-12  THRAOF12= 1.00D-08

 CPU time for Fock operators                      0.91 sec

 Construction of ABS:
 Smallest eigenvalue of S          3.97E-03  (threshold= 1.00E-08)
 Ratio eigmin/eigmax               8.46E-04  (threshold= 1.00E-09)
 Smallest eigenvalue of S kept     3.97E-03  (threshold= 3.97E-03, 0 functions deleted, 154 kept)

 Construction of CABS:
 Smallest eigenvalue of S          1.13E-05  (threshold= 1.00E-08)
 Ratio eigmin/eigmax               1.13E-05  (threshold= 1.00E-09)
 Smallest eigenvalue of S kept     1.13E-05  (threshold= 1.13E-05, 0 functions deleted, 154 kept)

 CPU time for CABS singles                        0.01 sec

 CABS-singles contribution of  -0.00572362 patched into reference energy.
 New reference energy        -137.80663113

 AO(A)-basis ORBITAL           loaded. Number of functions:      69
 RI(R)-basis CC-PVDZ-F12/OPTRI loaded. Number of functions:     154
 DF-basis AUG-CC-PVDZ/MP2FIT   loaded. Number of functions:     167

 Screening thresholds:   THRAO=  1.00D-10  THRMO=  1.00D-10  THRPROD=  1.00D-10
                         THRSW=  1.00D-07  THROV=  1.00D-12  THRAOF12= 1.00D-08

 CPU time for 3-index integral evaluation         0.39 sec
 CPU time for first  half transformation          0.03 sec ( 5065.5 MFLOP/sec)
 CPU time for sorting                             0.01 sec
 CPU time for assembly                            0.03 sec (25829.3 MFLOP/sec)
 CPU time for tranop_f12                          0.03 sec (34833.1 MFLOP/sec)
 CPU time for f12 integrals (total)               1.18 sec, Elapsed time:      1.28 sec
 CPU time for f12 matrices (total)                0.01 sec, Elapsed time:      0.02 sec

 Diagonal F12 approximation with fixed coefficients:  TSING= 0.500,  TTRIP= 0.250 (scaled by -1/beta)

 DF-MP2-F12 energy corrections:
 ==============================
 Approx.                                    Singlet             Triplet             Total
 DF-MP2-F12/3*C(DX,FIX)                -0.077593988390     -0.015954565632     -0.093548554021
 DF-MP2-F12/3*C(FIX)                   -0.068689460870     -0.015069890110     -0.083759350980
 DF-MP2-F12/3C(FIX)                    -0.069343161550     -0.015822748398     -0.085165909948

 DF-MP2-F12 correlation energies:
 ================================
 Approx.                                    Singlet             Triplet             Ecorr            Total Energy
 DF-MP2                                -0.226946584272     -0.132843215119     -0.359789799391   -138.166420933215
 DF-MP2-F12/3*C(DX,FIX)                -0.304540572662     -0.148797780750     -0.453338353412   -138.259969487237
 DF-MP2-F12/3*C(FIX)                   -0.295636045142     -0.147913105229     -0.443549150371   -138.250180284195
 DF-MP2-F12/3C(FIX)                    -0.296289745822     -0.148665963517     -0.444955709339   -138.251586843163

 SCS-DF-MP2 energies (F_SING= 1.20000  F_TRIP= 0.62222  F_PARALLEL= 0.33333):
 ============================================================================
 SCS-DF-MP2                            -0.354993901645   -138.161625035469
 SCS-DF-MP2-F12/3*C(DX,FIX)            -0.458033972994   -138.264665106819
 SCS-DF-MP2-F12/3*C(FIX)               -0.446798075201   -138.253429209026
 SCS-DF-MP2-F12/3C(FIX)                -0.448050961174   -138.254682094999

 Symmetry restored.
 Symmetry transformation completed.

 Number of N-1 electron functions:               6
 Number of N-2 electron functions:              21
 Number of singly external CSFs:               229
 Number of doubly external CSFs:             35788
 Total number of CSFs:                       36018

 Length of J-op  integral file:              15.24 MB
 Length of K-op  integral file:              18.55 MB
 Length of 3-ext integral record:             0.00 MB

 Memory could be reduced to 1.16 Mwords without degradation in triples

 Integral transformation finished. Total CPU:   0.03 sec, npass=  1  Memory used:   0.52 MW

 Reference energy:                   -137.80663113

 Adding F12 terms to K(Cij), methodcc=6,  factor= 1.0

 ITER.      SQ.NORM     CORR.ENERGY   TOTAL ENERGY   ENERGY CHANGE        DEN1      VAR(S)    VAR(P)  DIIS     TIME  TIME/IT
   1      1.09660357    -0.36608489  -138.17271602    -0.00619391     0.00692072  0.34D-02  0.26D-02  1  1     2.25     0.05
   2      1.10715048    -0.36670911  -138.17334024    -0.00062422    -0.01008002  0.97D-04  0.62D-03  2  2     2.31     0.05
   3      1.11461599    -0.36766270  -138.17429383    -0.00095359    -0.00276439  0.14D-03  0.90D-04  3  3     2.36     0.05
   4      1.11910927    -0.36783995  -138.17447108    -0.00017725    -0.00150605  0.15D-04  0.25D-04  4  4     2.40     0.05
   5      1.12180577    -0.36789346  -138.17452460    -0.00005352    -0.00048559  0.21D-05  0.40D-05  5  5     2.46     0.05
   6      1.12276719    -0.36788305  -138.17451419     0.00001041    -0.00006350  0.10D-06  0.62D-06  6  6     2.49     0.05
   7      1.12296142    -0.36788333  -138.17451446    -0.00000028    -0.00002388  0.38D-07  0.12D-06  6  4     2.54     0.05
   8      1.12297425    -0.36788384  -138.17451497    -0.00000051     0.00000614  0.10D-07  0.19D-07  6  1     2.59     0.05
   9      1.12297532    -0.36788469  -138.17451582    -0.00000085     0.00000128  0.31D-08  0.25D-08  6  2     2.64     0.05
  10      1.12297282    -0.36788511  -138.17451624    -0.00000042     0.00000020  0.51D-09  0.45D-09  6  3     2.69     0.05
  11      1.12297154    -0.36788520  -138.17451633    -0.00000009     0.00000015  0.17D-09  0.68D-10  6  5     2.73     0.05
  12      1.12297041    -0.36788534  -138.17451647    -0.00000014     0.00000019  0.21D-10  0.15D-10  6  6     2.78     0.05
  13      1.12296925    -0.36788538  -138.17451652    -0.00000005     0.00000014  0.52D-11  0.22D-11  6  1     2.83     0.05
  14      1.12296864    -0.36788542  -138.17451655    -0.00000004     0.00000013  0.34D-12  0.37D-12  6  4     2.88     0.05
  15      1.12296846    -0.36788542  -138.17451656    -0.00000001     0.00000002  0.75D-13  0.93D-13  6  2     2.93     0.05
  16      1.12296836    -0.36788543  -138.17451656    -0.00000000     0.00000002  0.75D-14  0.16D-13  6  3     2.97     0.06
  17      1.12296834    -0.36788543  -138.17451656    -0.00000000     0.00000000  0.13D-14  0.19D-14  6  5     3.03     0.06
  18      1.12296833    -0.36788543  -138.17451656     0.00000000    -0.00000000  0.40D-15  0.37D-15  6  6     3.07     0.06
  19      1.12296833    -0.36788543  -138.17451656     0.00000000    -0.00000000  0.15D-15  0.93D-16  6  1     3.12     0.06
  20      1.12296833    -0.36788543  -138.17451656     0.00000000    -0.00000000  0.24D-16  0.21D-16  6  4     3.16     0.06
  21      1.12296833    -0.36788543  -138.17451656     0.00000000     0.00000000  0.82D-17  0.41D-17  6  2     3.21     0.06
  22      1.12296833    -0.36788543  -138.17451656     0.00000000    -0.00000000  0.60D-18  0.76D-18  6  5     3.26     0.06
  23      1.12296833    -0.36788543  -138.17451656     0.00000000     0.00000000  0.10D-18  0.37D-19  6  3     3.31     0.06
  24      1.12296833    -0.36788543  -138.17451656     0.00000000    -0.00000000  0.33D-19  0.86D-20  6  6     3.35     0.06
  25      1.12296833    -0.36788543  -138.17451656     0.00000000    -0.00000000  0.47D-20  0.19D-20  6  1     3.41     0.06
  26      1.12296833    -0.36788543  -138.17451656     0.00000000    -0.00000000  0.11D-20  0.26D-21  6  4     3.46     0.06
  27      1.12296833    -0.36788543  -138.17451656    -0.00000000     0.00000000  0.12D-21  0.50D-22  6  2     3.50     0.06

 Norm of t1 vector:      0.09219823      S-energy:     0.00000000      T1 diagnostic:  0.01881988
                                                                       D1 diagnostic:  0.05638978

 Doubles amplitudes (print threshold =  0.500E-01):

         I         J         SYM. A    SYM. B    A         B      T(IJ, AB)

         5         5         2         2         1         1     -0.05975417

 Adding energy correction from Wij-K(Fij), methodcc=6  factor= 1.0

  CCSD correlation energy              -0.367885428757
  MP2-F12 correction (uncoupled)       -0.080539075589
  C*T doubles correction               -0.002589927860
  f12b correction                       0.010330858940


 Total CPU time for triples:      0.26 sec


 RESULTS
 =======

  Reference energy                   -137.800907515969
  F12 singles correction               -0.005723617855

 F12 singles corrections added to reference energy

  New reference energy               -137.806631133825

  F12a singlet correction              -0.067989326318
  F12a triplet correction              -0.015139677131
  F12a total correction                -0.083129003449

 F12a corrections for ansatz F12/3C(FIX) added to CCSD energy

  CCSD-F12a singlet pair energy        -0.317220817341
  CCSD-F12a triplet pair energy        -0.133793614865
  CCSD-F12a correlation energy         -0.451014432206

  Triples (T) contribution             -0.013369657848
  Total correlation energy             -0.464384090054

  CCSD-F12a total energy             -138.257645566031
  CCSD[T]-F12a energy                -138.272434521231
  CCSD-T-F12a energy                 -138.270533193279
 !CCSD(T)-F12a total energy          -138.271015223878

 F12b corrections for ansatz F12/3C(FIX) added to CCSD(T)-F12a energy

  CCSD-F12b singlet pair energy        -0.307864410995
  CCSD-F12b triplet pair energy        -0.132819162271
  CCSD-F12b correlation energy         -0.440683573266

  Triples (T) contribution             -0.013369657848
  Total correlation energy             -0.454053231114

  CCSD-F12b total energy             -138.247314707091
  CCSD[T]-F12b energy                -138.262103662291
  CCSD-T-F12b energy                 -138.260202334339
 !CCSD(T)-F12b total energy          -138.260684364939

 Timing summary (sec):

 STEP                 CPU(USER)    SYS     CPU(TOT)    WALL
 Transformation          0.04      0.00      0.04      0.05
 CCSD iterations         1.34      0.17      1.51      1.54
 Triples                 0.26      0.00      0.26      0.28
 MP2-F12                 2.13      0.13      2.26      2.52
 F12b energy             0.03      0.00      0.03      0.03

 Program statistics:

 Available memory in ccsd:              1999999744
 Min. memory needed in ccsd:                136839
 Max. memory used in ccsd:                  163083
 Max. memory used in cckext:                208330 (28 integral passes)



 **********************************************************************************************************************************
 DATASETS  * FILE   NREC   LENGTH (MB)   RECORD NAMES
              1      20       45.77       500      610      700      900      950      970     1000      129      960     1100   
                                          VAR    BASINP    GEOM    SYMINP    ZMAT    AOBASIS   BASIS     P2S    ABASIS      S 
                                         1400     1410     1200     1210     1080     1600     1650     1300     1700     1380   
                                           T        V       H0       H01     AOSYM     SMH    MOLCAS    ERIS     OPER     JKOP   

              2       6        2.90       700     1000      520     2100     7360     7350   
                                         GEOM     BASIS   MCVARS     RHF    F12ABS    EF12   

 PROGRAMS   *        TOTAL   CCSD(T)    HF-SCF       INT
 CPU TIMES  *         5.11      3.83      0.28      0.85
 REAL TIME  *         7.43 SEC
 DISK USED  *        97.74 MB
 **********************************************************************************************************************************
 SETTING EE(1)          =      -138.26068436  AU                              


 Computing numerical gradient using default procedure for command CCSD(T)-F12

 *** Long output written to logfile /home/mdavis/f12eom_optimizer/tests/slurm/molpro_step.log ***


 Running default procedure: HF-SCF000  CCSD(T)-F12


 Generated   3 symmetrical displacements

 Numerical gradient for CCSD(T)-F12

 Total Energy          -138.26068436  Dipole moments:    0.000000    0.000000    0.000000

 Atom          dE/dx               dE/dy               dE/dz                  d2E/dx2             d2E/dy2             d2E/dz2
   1        -0.014863249         0.002699941         0.000000000            0.000000000         0.000000000         0.000000000
   2         0.020639500         0.046755597        -0.000000000            0.000000000         0.000000000         0.000000000
   3        -0.005776251        -0.049455538         0.000000000            0.000000000         0.000000000         0.000000000

 Recomputing wavefunction at initial geometry


 **********************************************************************************************************************************
 DATASETS  * FILE   NREC   LENGTH (MB)   RECORD NAMES
              1      21       45.99       500      610      700      900      701      950      970     1000      129      960   
                                          VAR    BASINP    GEOM    SYMINP    GEOM     ZMAT    AOBASIS   BASIS     P2S    ABASIS    
                                         1100     1400     1410     1200     1210     1080     1600     1650     1300     1700   
                                           S        T        V       H0       H01     AOSYM     SMH    MOLCAS    ERIS     OPER   
                                         1380   
                                         JKOP   

              2       8        3.12       700     1000      520     2100     7360     7350      701     5600   
                                         GEOM     BASIS   MCVARS     RHF    F12ABS    EF12     GEOM     GINFO   

 PROGRAMS   *        TOTAL    FORCES    HF-SCF       INT   CCSD(T)    HF-SCF       INT
 CPU TIMES  *        40.85      3.83      0.05     31.86      3.83      0.28      0.85
 REAL TIME  *        51.07 SEC
 DISK USED  *       100.73 MB
 **********************************************************************************************************************************
 EE(1)            =     -138.260684364939 AU
 GRADX(1:3)       = [     -0.014863249320    0.020639499846   -0.005776250526] AU
 GRADY(1:3)       = [      0.002699941270    0.046755597029   -0.049455538299] AU
 GRADZ(1:3)       = [      0.000000000000   -0.000000000000    0.000000000000] AU

 CCSD(T)-F12/cc-pVDZ-F12 energy=   -138.260684364939

     CCSD(T)-F12          HF-SCF     CCSD(T)-F12          HF-SCF
   -138.26068436   -137.80090752   -138.26068436   -137.80090752
 **********************************************************************************************************************************
 Molpro calculation terminated
