
 Primary working directories    : /scratch/mdavis/molpro_step_2022-08-17_17_34_49/molpro.SFmQjFvRX1
 Secondary working directories  : /scratch/mdavis/molpro_step_2022-08-17_17_34_49/molpro.SFmQjFvRX1
 Wavefunction directory         : /home/mdavis/f12eom_optimizer/tests/slurm/./
 Main file repository           : /scratch/mdavis/molpro_step_2022-08-17_17_34_49/molpro.SFmQjFvRX1/

 id        : olemiss

 Nodes     nprocs
 node17       1

 Using customized tuning parameters: mindgm=1; mindgv=20; mindgc=4; mindgr=1; noblas=0; minvec=7
 default implementation of scratch files=df  


 Variables initialized (945), CPU time= 0.01 sec
 ***,part of geometry opt run
 memory, 2000.0, m;
 gthresh,energy=1.d-12,zero=1.d-22,oneint=1.d-22,twoint=1.d-22;
 gthresh,optgrad=1.d-8,optstep=1.d-8;
 nocompress;
 bohr;
 geometry={
      3
 Fragment 1
     H  -1.6041729376   1.6841819265   0.0000000000
     C   0.4876704785   1.1249582236   0.0000000000
     F   0.2378551937  -1.4888603002   0.0000000000
      }
 
 set,charge=0
 set,spin=0
 basis=vdz-f12
 hf,maxit=500;wf,charge=0,spin=0;accu,20;
 ccsd(t)-f12,maxit=250;wf,charge=0,spin=0;orbital,IGNORE_ERROR;
 ee(1)=energy(2)
 forces,varsav
 SHOW[f18.12],ee(1)
 SHOW[f18.12],GRADX
 SHOW[f18.12],GRADY
 SHOW[f18.12],GRADZ
 Commands  initialized (802), CPU time= 0.00 sec, 659 directives.
 Default parameters read. Elapsed time= 0.10 sec

 Checking input...
 Passed
1


                                         ***  PROGRAM SYSTEM MOLPRO  ***
                                       Copyright, TTI GmbH Stuttgart, 2015
                                    Version 2020.1 linked Oct  6 2020 12:04:11


 **********************************************************************************************************************************
 LABEL *   part of geometry opt run                                                      
  64 bit serial version                                                                  DATE: 17-Aug-22          TIME: 17:34:50  
 **********************************************************************************************************************************

 SHA1:             8c27446f6450a7499e38f603e13c65f775101d37
 **********************************************************************************************************************************

 Memory per process:      2000 MW
 Total memory per node:   2000 MW

 GA preallocation disabled
 GA check disabled

 Variable memory set to 2000.0 MW


 THRESHOLDS:

 ZERO    =  1.00D-22  ONEINT  =  1.00D-22  TWOINT  =  1.00D-22  PREFAC  =  1.00D-14  XXXXXX  =  1.00D-09  EORDER  =  1.00D-04
 ENERGY  =  1.00D-12  ETEST   =  0.00D+00  EDENS   =  0.00D+00  THRDEDEF=  1.00D-06  GRADIENT=  1.00D-05  STEP    =  1.00D-03
 ORBITAL =  1.00D-05  CIVEC   =  1.00D-05  COEFF   =  1.00D-04  PRINTCI =  5.00D-02  PUNCHCI =  9.90D+01  OPTGRAD =  3.00D-04
 OPTENERG=  1.00D-06  OPTSTEP =  3.00D-04  THRGRAD =  1.00D-10  COMPRESS=  1.00D-11  VARMIN  =  1.00D-07  VARMAX  =  1.00D-03
 THRDOUB =  0.00D+00  THRDIV  =  1.00D-05  THRRED  =  1.00D-07  THRPSP  =  1.00D+00  THRDC   =  1.00D-10  THRCS   =  1.00D-10
 THRNRM  =  1.00D-08  THREQ   =  0.00D+00  THRDE   =  1.00D+00  THRREF  =  1.00D-05  SPARFAC =  1.00D+00  THRDLP  =  1.00D-07
 THRDIA  =  1.00D-10  THRDLS  =  1.00D-07  THRGPS  =  0.00D+00  THRKEX  =  0.00D+00  THRDIS  =  2.00D-01  THRVAR  =  1.00D-10
 THRLOC  =  1.00D-06  THRGAP  =  1.00D-06  THRLOCT = -1.00D+00  THRGAPT = -1.00D+00  THRORB  =  1.00D-06  THRMLTP =  0.00D+00
 THRCPQCI=  1.00D-10  KEXTA   =  0.00D+00  THRCOARS=  0.00D+00  SYMTOL  =  1.00D-06  GRADTOL =  1.00D-06  THROVL  =  1.00D-08
 THRORTH =  1.00D-08  GRID    =  1.00D-06  GRIDMAX =  1.00D-03  DTMAX   =  0.00D+00  THROCCDE=  1.00D-01  THROCCDE=  1.00D-01
 THRPRINT=  2.50D-01


 THRESHOLDS:

 ZERO    =  1.00D-22  ONEINT  =  1.00D-22  TWOINT  =  1.00D-22  PREFAC  =  1.00D-14  XXXXXX  =  1.00D-09  EORDER  =  1.00D-04
 ENERGY  =  1.00D-12  ETEST   =  0.00D+00  EDENS   =  0.00D+00  THRDEDEF=  1.00D-06  GRADIENT=  1.00D-05  STEP    =  1.00D-03
 ORBITAL =  1.00D-05  CIVEC   =  1.00D-05  COEFF   =  1.00D-04  PRINTCI =  5.00D-02  PUNCHCI =  9.90D+01  OPTGRAD =  1.00D-08
 OPTENERG=  1.00D-06  OPTSTEP =  1.00D-08  THRGRAD =  1.00D-10  COMPRESS=  1.00D-11  VARMIN  =  1.00D-07  VARMAX  =  1.00D-03
 THRDOUB =  0.00D+00  THRDIV  =  1.00D-05  THRRED  =  1.00D-07  THRPSP  =  1.00D+00  THRDC   =  1.00D-10  THRCS   =  1.00D-10
 THRNRM  =  1.00D-08  THREQ   =  0.00D+00  THRDE   =  1.00D+00  THRREF  =  1.00D-05  SPARFAC =  1.00D+00  THRDLP  =  1.00D-07
 THRDIA  =  1.00D-10  THRDLS  =  1.00D-07  THRGPS  =  0.00D+00  THRKEX  =  0.00D+00  THRDIS  =  2.00D-01  THRVAR  =  1.00D-10
 THRLOC  =  1.00D-06  THRGAP  =  1.00D-06  THRLOCT = -1.00D+00  THRGAPT = -1.00D+00  THRORB  =  1.00D-06  THRMLTP =  0.00D+00
 THRCPQCI=  1.00D-10  KEXTA   =  0.00D+00  THRCOARS=  0.00D+00  SYMTOL  =  1.00D-06  GRADTOL =  1.00D-06  THROVL  =  1.00D-08
 THRORTH =  1.00D-08  GRID    =  1.00D-06  GRIDMAX =  1.00D-03  DTMAX   =  0.00D+00  THROCCDE=  1.00D-01  THROCCDE=  1.00D-01
 THRPRINT=  2.50D-01


 Input parameters for SORTINT:

 COMPRESS =    0.000000
 C_FINAL  =    1.000000
 DEBUG    =   -1.000000
 C_SORT1  =    0.000000
 C_SEWARD =    0.000000
 THRESH   =    0.000000
 IO       =  molpro                                                                                                                          
 SPRI     =    0.000000
 ZUNIT=BOHR


 Geometry recognized as XYZ

 SETTING CHARGE         =     0.00000000D+00                                  
 SETTING SPIN           =     0.00000000D+00                                  
 SETTING BASIS          =    VDZ-F12


 Recomputing integrals since basis changed


 Using spherical harmonics

 Library entry H      S cc-pVDZ-F12          selected for orbital group  1
 Library entry H      P cc-pVDZ-F12          selected for orbital group  1
 Library entry C      S cc-pVDZ-F12          selected for orbital group  2
 Library entry C      P cc-pVDZ-F12          selected for orbital group  2
 Library entry C      D cc-pVDZ-F12          selected for orbital group  2
 Library entry F      S cc-pVDZ-F12          selected for orbital group  3
 Library entry F      P cc-pVDZ-F12          selected for orbital group  3
 Library entry F      D cc-pVDZ-F12          selected for orbital group  3


 PROGRAM * SEWARD (Integral evaluation for generally contracted gaussian basis sets)     Author: Roland Lindh, 1990

 Geometry written to block  1 of record 700


 Point group  Cs  



 ATOMIC COORDINATES

 NR  ATOM    CHARGE       X              Y              Z

   1  H       1.00   -1.604172938    1.684181926    0.000000000
   2  C       6.00    0.487670479    1.124958224    0.000000000
   3  F       9.00    0.237855194   -1.488860300    0.000000000

 Bond lengths in Bohr (Angstrom)

 1-2  2.165303680  2-3  2.625729413
     ( 1.145829362)     ( 1.389476168)

 Bond angles

  1-2-3   99.50772866

 NUCLEAR CHARGE:                   16
 NUMBER OF PRIMITIVE AOS:          93
 NUMBER OF SYMMETRY AOS:           89
 NUMBER OF CONTRACTIONS:           69   (   49A'  +   20A"  )
 NUMBER OF INNER CORE ORBITALS:     0   (    0A'  +    0A"  )
 NUMBER OF OUTER CORE ORBITALS:     2   (    2A'  +    0A"  )
 NUMBER OF VALENCE ORBITALS:        9   (    7A'  +    2A"  )


 NUCLEAR REPULSION ENERGY   25.78969932

 Eigenvalues of metric

         1 0.208E-02 0.323E-02 0.328E-02 0.400E-02 0.434E-02 0.468E-02 0.476E-02 0.983E-02
         2 0.330E-02 0.468E-02 0.879E-01 0.981E-01 0.143E+00 0.190E+00 0.257E+00 0.394E+00


 Contracted 2-electron integrals neglected if value below      1.0D-22

        1426049. INTEGRALS WRITTEN OUT IN     349 BLOCKS ON RECORD 1290 OF FILE 1


 NUMBER OF SORTED TWO-ELECTRON INTEGRALS:    1544830.     BUFFER LENGTH:  32768
 NUMBER OF SEGMENTS:   1  SEGMENT LENGTH:    1544830      RECORD LENGTH: 524288

 Memory used in sort:       2.10 MW

 SORT1 READ     1426049. AND WROTE     1455925. INTEGRALS IN      5 RECORDS. CPU TIME:     0.03 SEC, REAL TIME:     0.04 SEC
 SORT2 READ     1455925. AND WROTE     1544830. INTEGRALS IN      1 RECORDS. CPU TIME:     0.06 SEC, REAL TIME:     0.06 SEC

 FILE SIZES:   FILE 1:    53.0 MBYTE,  FILE 4:    21.0 MBYTE,   TOTAL:     74.0 MBYTE

 OPERATOR DM      FOR CENTER  0  COORDINATES:    0.000000    0.000000    0.000000


 **********************************************************************************************************************************
 DATASETS  * FILE   NREC   LENGTH (MB)   RECORD NAMES
              1      19       42.18       500      610      700      900      950      970     1000      129      960     1100   
                                          VAR    BASINP    GEOM    SYMINP    ZMAT    AOBASIS   BASIS     P2S    ABASIS      S 
                                         1400     1410     1200     1210     1080     1600     1650     1300     1700   
                                           T        V       H0       H01     AOSYM     SMH    MOLCAS    ERIS     OPER   

 PROGRAMS   *        TOTAL       INT
 CPU TIMES  *         1.08      0.95
 REAL TIME  *         2.64 SEC
 DISK USED  *        74.32 MB
 **********************************************************************************************************************************


 PROGRAM * RHF-SCF (CLOSED SHELL)       Authors: W. Meyer, H.-J. Werner


 NUMBER OF ELECTRONS:       8+    8-
 CONVERGENCE THRESHOLDS:    1.00E-10 (Density)    1.00E-13 (Energy)
 MAX. NUMBER OF ITERATIONS:      500
 INTERPOLATION TYPE:            DIIS
 INTERPOLATION STEPS:              2 (START)      1 (STEP)
 LEVEL SHIFTS:                  0.00 (CLOSED)  0.00 (OPEN) 



 Orbital guess generated from atomic densities. Full valence occupancy:    9   2

 Molecular orbital dump at record        2100.2

 Initial occupancy:   7   1

 ITERATION    DDIFF          GRAD             ENERGY        2-EL.EN.            DIPOLE MOMENTS         DIIS   ORB.
    1      0.000D+00      0.000D+00      -137.76499361    155.233207   -0.64502    0.34663    0.00000    0    start
    2      0.000D+00      0.114D-01      -137.79453841    155.463048   -0.65127    0.12552    0.00000    1    diag
    3      0.169D-01      0.568D-02      -137.80093217    156.254028   -0.60846    0.30057    0.00000    2    diag
    4      0.547D-02      0.149D-02      -137.80141339    155.975271   -0.60242    0.29297    0.00000    3    diag
    5      0.126D-02      0.299D-03      -137.80148097    156.025978   -0.60123    0.30291    0.00000    4    diag
    6      0.480D-03      0.855D-04      -137.80148883    156.028031   -0.60040    0.30492    0.00000    5    diag
    7      0.170D-03      0.298D-04      -137.80148977    156.028152   -0.60047    0.30470    0.00000    6    diag
    8      0.740D-04      0.646D-05      -137.80148981    156.027968   -0.60047    0.30445    0.00000    7    diag
    9      0.163D-04      0.137D-05      -137.80148981    156.027975   -0.60049    0.30438    0.00000    8    diag
   10      0.308D-05      0.340D-06      -137.80148981    156.027964   -0.60049    0.30436    0.00000    9    orth
   11      0.928D-06      0.808D-07      -137.80148981    156.027962   -0.60049    0.30435    0.00000    9    diag
   12      0.220D-06      0.174D-07      -137.80148981    156.027962   -0.60049    0.30435    0.00000    9    diag
   13      0.411D-07      0.463D-08      -137.80148981    156.027962   -0.60049    0.30435    0.00000    9    diag
   14      0.115D-07      0.142D-08      -137.80148981    156.027962   -0.60049    0.30435    0.00000    9    diag
   15      0.259D-08      0.250D-09      -137.80148981    156.027962   -0.60049    0.30435    0.00000    9    diag
   16      0.368D-09      0.622D-10      -137.80148981    156.027962   -0.60049    0.30435    0.00000    9    diag
   17      0.125D-09      0.141D-10      -137.80148981    156.027962   -0.60049    0.30435    0.00000    9    diag
   18      0.341D-10      0.268D-11      -137.80148981    156.027962   -0.60049    0.30435    0.00000    0    orth

 Final occupancy:   7   1

 !RHF STATE  1.1 Energy              -137.801489808875
 Nuclear energy                        25.78969932
 One-electron energy                 -241.60517018
 Two-electron energy                   78.01398106
 Virial quotient                       -1.00203315
 !RHF STATE  1.1 Dipole moment         -0.60048880     0.30435370     0.00000000
 Dipole moment /Debye                  -1.52619032     0.77353928     0.00000000

 Orbital energies:

         1.1          2.1          3.1          4.1          5.1          6.1          7.1          8.1          9.1
    -26.341442   -11.391473    -1.638667    -0.913814    -0.733208    -0.653724    -0.429839     0.070575     0.081907

         1.2          2.2          3.2
     -0.686437     0.033641     0.118393


 HOMO      7.1    -0.429839 =     -11.6965eV
 LUMO      2.2     0.033641 =       0.9154eV
 LUMO-HOMO         0.463479 =      12.6119eV


 **********************************************************************************************************************************
 DATASETS  * FILE   NREC   LENGTH (MB)   RECORD NAMES
              1      19       42.18       500      610      700      900      950      970     1000      129      960     1100   
                                          VAR    BASINP    GEOM    SYMINP    ZMAT    AOBASIS   BASIS     P2S    ABASIS      S 
                                         1400     1410     1200     1210     1080     1600     1650     1300     1700   
                                           T        V       H0       H01     AOSYM     SMH    MOLCAS    ERIS     OPER   

              2       4        2.84       700     1000      520     2100   
                                         GEOM     BASIS   MCVARS     RHF  

 PROGRAMS   *        TOTAL    HF-SCF       INT
 CPU TIMES  *         1.36      0.28      0.95
 REAL TIME  *         2.98 SEC
 DISK USED  *        74.32 MB
 **********************************************************************************************************************************


 PROGRAM * CCSD (Closed-shell coupled cluster)     Authors: C. Hampel, H.-J. Werner, 1991, M. Deegan, P.J. Knowles, 1992

                                  CCSD-F12 implementation by  H.-J. Werner, 2007

                   Density fitting integral evaluation by F.R. Manby, 2003,2007, G. Knizia, 2010


 Basis set AUG-CC-PVDZ/JKFIT generated.  Number of basis functions:   204 
 Basis set CC-PVDZ-F12/OPTRI generated.  Number of basis functions:   154 
 Basis set AUG-CC-PVDZ/MP2FIT generated. Number of basis functions:   167 

 Convergence thresholds:  THRVAR = 1.00D-16  THRDEN = 1.00D-12

 CCSD(T)     terms to be evaluated (factor= 1.000)


 Number of core orbitals:           2 (   2   0 )
 Number of closed-shell orbitals:   6 (   5   1 )
 Number of external orbitals:      61 (  42  19 )

 Molecular orbitals read from record     2100.2  Type=RHF/CANONICAL (state 1.1)

 MP2-F12 correlation treatment (H.-J. Werner, 2006)
 ==================================================

 Using MP2-F12 with ansatz 3C(FIX)

 Using projected zeroth-order Hamiltonian (+Z)

 FOCKRIB=T FOCKRIC=T FOCKRIP=T CABSP=T CABSA=T CABSK=T CABSF=T GBC=F EBC=F DMAT=T NOFIK=T NOPAO=1 SOLVE=-1  USEPAO=0
 EXCH_A= T EXCH_B= F EXCH_C= F EXCH_P= F

 Geminal basis:    OPTFULL  GEM_TYPE=SLATER  BETA=1.0  NGEM=6

 Optimizing Gaussian exponents for each gem_beta

 Geminal optimization for beta= 1.0000
 Weight function:   m=0, omega= 1.4646

 Augmented Hessian optimization of geminal fit. Trust ratio= 0.40000
 Convergence reached after   2 iterations. Final gradient= 8.66D-16, Step= 4.23D-06, Delta= 1.28D-09

 Alpha:                 0.19532     0.81920     2.85917     9.50073    35.69989   197.79328
 Coeff:                 0.27070     0.30552     0.18297     0.10986     0.06810     0.04224


 Symmetry turned off. Reference energy:       -137.801489808875

 All pairs explicitly correlated. Number of r12-pairs:           21

 Excluding core orbitals from MO domains

 AO(A)-basis ORBITAL           loaded. Number of functions:      69
 RI(R)-basis CC-PVDZ-F12/OPTRI loaded. Number of functions:     154
 DF-basis AUG-CC-PVDZ/JKFIT    loaded. Number of functions:     204

 Screening thresholds:   THRAO=  1.00D-10  THRMO=  1.00D-10  THRPROD=  1.00D-10
                         THRSW=  1.00D-07  THROV=  1.00D-12  THRAOF12= 1.00D-08

 CPU time for Fock operators                      0.90 sec

 Construction of ABS:
 Smallest eigenvalue of S          3.95E-03  (threshold= 1.00E-08)
 Ratio eigmin/eigmax               8.43E-04  (threshold= 1.00E-09)
 Smallest eigenvalue of S kept     3.95E-03  (threshold= 3.95E-03, 0 functions deleted, 154 kept)

 Construction of CABS:
 Smallest eigenvalue of S          1.12E-05  (threshold= 1.00E-08)
 Ratio eigmin/eigmax               1.12E-05  (threshold= 1.00E-09)
 Smallest eigenvalue of S kept     1.12E-05  (threshold= 1.12E-05, 0 functions deleted, 154 kept)

 CPU time for CABS singles                        0.01 sec

 CABS-singles contribution of  -0.00574770 patched into reference energy.
 New reference energy        -137.80723751

 AO(A)-basis ORBITAL           loaded. Number of functions:      69
 RI(R)-basis CC-PVDZ-F12/OPTRI loaded. Number of functions:     154
 DF-basis AUG-CC-PVDZ/MP2FIT   loaded. Number of functions:     167

 Screening thresholds:   THRAO=  1.00D-10  THRMO=  1.00D-10  THRPROD=  1.00D-10
                         THRSW=  1.00D-07  THROV=  1.00D-12  THRAOF12= 1.00D-08

 CPU time for 3-index integral evaluation         0.42 sec
 CPU time for first  half transformation          0.02 sec ( 7598.3 MFLOP/sec)
 CPU time for sorting                             0.01 sec
 CPU time for fitting                             0.01 sec ( 8266.3 MFLOP/sec)
 CPU time for tilde quantities                    0.01 sec (10307.8 MFLOP/sec)
 CPU time for assembly                            0.02 sec (38743.9 MFLOP/sec)
 CPU time for tranop_f12                          0.04 sec (26124.8 MFLOP/sec)
 CPU time for f12 integrals (total)               1.20 sec, Elapsed time:      1.27 sec
 CPU time for f12 matrices (total)                0.01 sec, Elapsed time:      0.02 sec

 Diagonal F12 approximation with fixed coefficients:  TSING= 0.500,  TTRIP= 0.250 (scaled by -1/beta)

 DF-MP2-F12 energy corrections:
 ==============================
 Approx.                                    Singlet             Triplet             Total
 DF-MP2-F12/3*C(DX,FIX)                -0.077617148361     -0.015965778007     -0.093582926368
 DF-MP2-F12/3*C(FIX)                   -0.068700588489     -0.015078389986     -0.083778978475
 DF-MP2-F12/3C(FIX)                    -0.069355120325     -0.015832759523     -0.085187879848

 DF-MP2-F12 correlation energies:
 ================================
 Approx.                                    Singlet             Triplet             Ecorr            Total Energy
 DF-MP2                                -0.226805266638     -0.132795908725     -0.359601175363   -138.166838682503
 DF-MP2-F12/3*C(DX,FIX)                -0.304422414999     -0.148761686732     -0.453184101731   -138.260421608871
 DF-MP2-F12/3*C(FIX)                   -0.295505855127     -0.147874298711     -0.443380153838   -138.250617660978
 DF-MP2-F12/3C(FIX)                    -0.296160386963     -0.148628668248     -0.444789055211   -138.252026562351

 SCS-DF-MP2 energies (F_SING= 1.20000  F_TRIP= 0.62222  F_PARALLEL= 0.33333):
 ============================================================================
 SCS-DF-MP2                            -0.354794885395   -138.162032392535
 SCS-DF-MP2-F12/3*C(DX,FIX)            -0.457869725299   -138.265107232439
 SCS-DF-MP2-F12/3*C(FIX)               -0.446617700906   -138.253855208046
 SCS-DF-MP2-F12/3C(FIX)                -0.447872524599   -138.255110031739

 Symmetry restored.
 Symmetry transformation completed.

 Number of N-1 electron functions:               6
 Number of N-2 electron functions:              21
 Number of singly external CSFs:               229
 Number of doubly external CSFs:             35788
 Total number of CSFs:                       36018

 Length of J-op  integral file:              15.24 MB
 Length of K-op  integral file:              18.55 MB
 Length of 3-ext integral record:             0.00 MB

 Memory could be reduced to 1.16 Mwords without degradation in triples

 Integral transformation finished. Total CPU:   0.03 sec, npass=  1  Memory used:   0.52 MW

 Reference energy:                   -137.80723751

 Adding F12 terms to K(Cij), methodcc=6,  factor= 1.0

 ITER.      SQ.NORM     CORR.ENERGY   TOTAL ENERGY   ENERGY CHANGE        DEN1      VAR(S)    VAR(P)  DIIS     TIME  TIME/IT
   1      1.09641950    -0.36590236  -138.17313987    -0.00620007     0.00685014  0.33D-02  0.25D-02  1  1     2.26     0.05
   2      1.10692046    -0.36653182  -138.17376932    -0.00062945    -0.01003964  0.96D-04  0.61D-03  2  2     2.31     0.05
   3      1.11434129    -0.36747919  -138.17471670    -0.00094738    -0.00275398  0.14D-03  0.90D-04  3  3     2.36     0.05
   4      1.11880875    -0.36765701  -138.17489452    -0.00017782    -0.00149833  0.15D-04  0.24D-04  4  4     2.41     0.05
   5      1.12148101    -0.36771041  -138.17494791    -0.00005340    -0.00048070  0.21D-05  0.40D-05  5  5     2.46     0.05
   6      1.12243276    -0.36770017  -138.17493768     0.00001024    -0.00006296  0.10D-06  0.62D-06  6  6     2.51     0.05
   7      1.12262417    -0.36770068  -138.17493818    -0.00000051    -0.00002340  0.39D-07  0.12D-06  6  4     2.55     0.05
   8      1.12263605    -0.36770122  -138.17493873    -0.00000055     0.00000620  0.10D-07  0.19D-07  6  1     2.61     0.05
   9      1.12263704    -0.36770211  -138.17493962    -0.00000089     0.00000127  0.31D-08  0.25D-08  6  2     2.66     0.06
  10      1.12263449    -0.36770254  -138.17494005    -0.00000043     0.00000022  0.51D-09  0.45D-09  6  3     2.71     0.06
  11      1.12263322    -0.36770263  -138.17494014    -0.00000009     0.00000014  0.16D-09  0.67D-10  6  5     2.76     0.06
  12      1.12263212    -0.36770276  -138.17494027    -0.00000013     0.00000019  0.20D-10  0.15D-10  6  6     2.81     0.06
  13      1.12263100    -0.36770281  -138.17494032    -0.00000004     0.00000013  0.51D-11  0.22D-11  6  1     2.85     0.06
  14      1.12263040    -0.36770284  -138.17494035    -0.00000004     0.00000013  0.33D-12  0.36D-12  6  4     2.90     0.06
  15      1.12263022    -0.36770285  -138.17494036    -0.00000001     0.00000002  0.71D-13  0.92D-13  6  2     2.95     0.06
  16      1.12263012    -0.36770285  -138.17494036    -0.00000000     0.00000002  0.70D-14  0.15D-13  6  3     2.98     0.06
  17      1.12263010    -0.36770285  -138.17494036    -0.00000000     0.00000000  0.13D-14  0.19D-14  6  5     3.03     0.06
  18      1.12263009    -0.36770285  -138.17494036     0.00000000    -0.00000000  0.37D-15  0.37D-15  6  6     3.08     0.06
  19      1.12263009    -0.36770285  -138.17494036     0.00000000     0.00000000  0.14D-15  0.93D-16  6  1     3.13     0.06
  20      1.12263009    -0.36770285  -138.17494036     0.00000000    -0.00000000  0.23D-16  0.21D-16  6  4     3.18     0.06
  21      1.12263009    -0.36770285  -138.17494036     0.00000000     0.00000000  0.78D-17  0.40D-17  6  2     3.23     0.06
  22      1.12263009    -0.36770285  -138.17494036     0.00000000    -0.00000000  0.59D-18  0.73D-18  6  5     3.28     0.06
  23      1.12263009    -0.36770285  -138.17494036     0.00000000     0.00000000  0.10D-18  0.34D-19  6  3     3.33     0.06
  24      1.12263009    -0.36770285  -138.17494036     0.00000000    -0.00000000  0.31D-19  0.78D-20  6  6     3.37     0.06
  25      1.12263009    -0.36770285  -138.17494036     0.00000000    -0.00000000  0.43D-20  0.17D-20  6  1     3.42     0.06
  26      1.12263009    -0.36770285  -138.17494036     0.00000000    -0.00000000  0.10D-20  0.24D-21  6  4     3.47     0.06
  27      1.12263009    -0.36770285  -138.17494036    -0.00000000     0.00000000  0.11D-21  0.47D-22  6  2     3.53     0.06

 Norm of t1 vector:      0.09167729      S-energy:     0.00000000      T1 diagnostic:  0.01871355
                                                                       D1 diagnostic:  0.05604276

 Doubles amplitudes (print threshold =  0.500E-01):

         I         J         SYM. A    SYM. B    A         B      T(IJ, AB)

         5         5         2         2         1         1     -0.05950270

 Adding energy correction from Wij-K(Fij), methodcc=6  factor= 1.0

  CCSD correlation energy              -0.367702854360
  MP2-F12 correction (uncoupled)       -0.080553874670
  C*T doubles correction               -0.002594207490
  f12b correction                       0.010324404764


 Total CPU time for triples:      0.26 sec


 RESULTS
 =======

  Reference energy                   -137.801489808875
  F12 singles correction               -0.005747698265

 F12 singles corrections added to reference energy

  New reference energy               -137.807237507140

  F12a singlet correction              -0.067999866897
  F12a triplet correction              -0.015148215263
  F12a total correction                -0.083148082160

 F12a corrections for ansatz F12/3C(FIX) added to CCSD energy

  CCSD-F12a singlet pair energy        -0.317052796366
  CCSD-F12a triplet pair energy        -0.133798140154
  CCSD-F12a correlation energy         -0.450850936520

  Triples (T) contribution             -0.013327819626
  Total correlation energy             -0.464178756146

  CCSD-F12a total energy             -138.258088443660
  CCSD[T]-F12a energy                -138.272820258867
  CCSD-T-F12a energy                 -138.270939503377
 !CCSD(T)-F12a total energy          -138.271416263286

 F12b corrections for ansatz F12/3C(FIX) added to CCSD(T)-F12a energy

  CCSD-F12b singlet pair energy        -0.307702827481
  CCSD-F12b triplet pair energy        -0.132823704275
  CCSD-F12b correlation energy         -0.440526531756

  Triples (T) contribution             -0.013327819626
  Total correlation energy             -0.453854351382

  CCSD-F12b total energy             -138.247764038896
  CCSD[T]-F12b energy                -138.262495854103
  CCSD-T-F12b energy                 -138.260615098613
 !CCSD(T)-F12b total energy          -138.261091858522

 Timing summary (sec):

 STEP                 CPU(USER)    SYS     CPU(TOT)    WALL
 Transformation          0.03      0.01      0.04      0.04
 CCSD iterations         1.35      0.17      1.52      1.55
 Triples                 0.26      0.01      0.27      0.27
 MP2-F12                 2.15      0.09      2.24      2.53
 F12b energy             0.03      0.00      0.03      0.03

 Program statistics:

 Available memory in ccsd:              1999999744
 Min. memory needed in ccsd:                136839
 Max. memory used in ccsd:                  163083
 Max. memory used in cckext:                208330 (28 integral passes)



 **********************************************************************************************************************************
 DATASETS  * FILE   NREC   LENGTH (MB)   RECORD NAMES
              1      20       45.77       500      610      700      900      950      970     1000      129      960     1100   
                                          VAR    BASINP    GEOM    SYMINP    ZMAT    AOBASIS   BASIS     P2S    ABASIS      S 
                                         1400     1410     1200     1210     1080     1600     1650     1300     1700     1380   
                                           T        V       H0       H01     AOSYM     SMH    MOLCAS    ERIS     OPER     JKOP   

              2       6        2.90       700     1000      520     2100     7360     7350   
                                         GEOM     BASIS   MCVARS     RHF    F12ABS    EF12   

 PROGRAMS   *        TOTAL   CCSD(T)    HF-SCF       INT
 CPU TIMES  *         5.21      3.84      0.28      0.95
 REAL TIME  *         7.43 SEC
 DISK USED  *        97.74 MB
 **********************************************************************************************************************************
 SETTING EE(1)          =      -138.26109186  AU                              


 Computing numerical gradient using default procedure for command CCSD(T)-F12

 *** Long output written to logfile /home/mdavis/f12eom_optimizer/tests/slurm/molpro_step.log ***


 Running default procedure: HF-SCF000  CCSD(T)-F12


 Generated   3 symmetrical displacements

 Numerical gradient for CCSD(T)-F12

 Total Energy          -138.26109186  Dipole moments:    0.000000    0.000000    0.000000

 Atom          dE/dx               dE/dy               dE/dz                  d2E/dx2             d2E/dy2             d2E/dz2
   1        -0.014202843         0.002885672         0.000000000            0.000000000         0.000000000         0.000000000
   2         0.019511517         0.045028597         0.000000000            0.000000000         0.000000000         0.000000000
   3        -0.005308674        -0.047914269         0.000000000            0.000000000         0.000000000         0.000000000

 Recomputing wavefunction at initial geometry


 **********************************************************************************************************************************
 DATASETS  * FILE   NREC   LENGTH (MB)   RECORD NAMES
              1      21       45.99       500      610      700      900      701      950      970     1000      129      960   
                                          VAR    BASINP    GEOM    SYMINP    GEOM     ZMAT    AOBASIS   BASIS     P2S    ABASIS    
                                         1100     1400     1410     1200     1210     1080     1600     1650     1300     1700   
                                           S        T        V       H0       H01     AOSYM     SMH    MOLCAS    ERIS     OPER   
                                         1380   
                                         JKOP   

              2       8        3.12       700     1000      520     2100     7360     7350      701     5600   
                                         GEOM     BASIS   MCVARS     RHF    F12ABS    EF12     GEOM     GINFO   

 PROGRAMS   *        TOTAL    FORCES    HF-SCF       INT   CCSD(T)    HF-SCF       INT
 CPU TIMES  *        41.05      3.81      0.05     31.98      3.84      0.28      0.95
 REAL TIME  *        51.08 SEC
 DISK USED  *       100.73 MB
 **********************************************************************************************************************************
 EE(1)            =     -138.261091858522 AU
 GRADX(1:3)       = [     -0.014202842942    0.019511516574   -0.005308673632] AU
 GRADY(1:3)       = [      0.002885671912    0.045028597437   -0.047914269349] AU
 GRADZ(1:3)       = [      0.000000000000    0.000000000000    0.000000000000] AU

 CCSD(T)-F12/cc-pVDZ-F12 energy=   -138.261091858522

     CCSD(T)-F12          HF-SCF     CCSD(T)-F12          HF-SCF
   -138.26109186   -137.80148981   -138.26109186   -137.80148981
 **********************************************************************************************************************************
 Molpro calculation terminated
