
 Primary working directories    : /scratch/mdavis/molpro_step_2022-08-17_20_56_26/molpro.OhU8gQSaak
 Secondary working directories  : /scratch/mdavis/molpro_step_2022-08-17_20_56_26/molpro.OhU8gQSaak
 Wavefunction directory         : /home/mdavis/f12eom_optimizer/tests/slurm/./
 Main file repository           : /scratch/mdavis/molpro_step_2022-08-17_20_56_26/molpro.OhU8gQSaak/

 id        : olemiss

 Nodes     nprocs
 node17       1

 Using customized tuning parameters: mindgm=1; mindgv=20; mindgc=4; mindgr=1; noblas=0; minvec=7
 default implementation of scratch files=df  


 Variables initialized (945), CPU time= 0.01 sec
 ***,part of geometry opt run
 memory, 2000.0, m;
 gthresh,energy=1.d-12,zero=1.d-22,oneint=1.d-22,twoint=1.d-22;
 gthresh,optgrad=1.d-8,optstep=1.d-8;
 nocompress;
 bohr;
 geometry={
      3
 Fragment 1
     H  -1.6084265568   1.6786641067   0.0000000000
     C   0.4979989318   1.1362223383   0.0000000000
     F   0.2317803595  -1.4946065950   0.0000000000
      }
 
 set,charge=0
 set,spin=0
 basis=vdz-f12
 hf,maxit=500;wf,charge=0,spin=0;accu,20;
 ccsd(t)-f12,maxit=250;wf,charge=0,spin=0;orbital,IGNORE_ERROR;
 ee(1)=energy(2)
 forces,varsav
 SHOW[f18.12],ee(1)
 SHOW[f18.12],GRADX
 SHOW[f18.12],GRADY
 SHOW[f18.12],GRADZ
 Commands  initialized (802), CPU time= 0.01 sec, 659 directives.
 Default parameters read. Elapsed time= 0.14 sec

 Checking input...
 Passed
1


                                         ***  PROGRAM SYSTEM MOLPRO  ***
                                       Copyright, TTI GmbH Stuttgart, 2015
                                    Version 2020.1 linked Oct  6 2020 12:04:11


 **********************************************************************************************************************************
 LABEL *   part of geometry opt run                                                      
  64 bit serial version                                                                  DATE: 17-Aug-22          TIME: 20:57:34  
 **********************************************************************************************************************************

 SHA1:             8c27446f6450a7499e38f603e13c65f775101d37
 **********************************************************************************************************************************

 Memory per process:      2000 MW
 Total memory per node:   2000 MW

 GA preallocation disabled
 GA check disabled

 Variable memory set to 2000.0 MW


 THRESHOLDS:

 ZERO    =  1.00D-22  ONEINT  =  1.00D-22  TWOINT  =  1.00D-22  PREFAC  =  1.00D-14  XXXXXX  =  1.00D-09  EORDER  =  1.00D-04
 ENERGY  =  1.00D-12  ETEST   =  0.00D+00  EDENS   =  0.00D+00  THRDEDEF=  1.00D-06  GRADIENT=  1.00D-05  STEP    =  1.00D-03
 ORBITAL =  1.00D-05  CIVEC   =  1.00D-05  COEFF   =  1.00D-04  PRINTCI =  5.00D-02  PUNCHCI =  9.90D+01  OPTGRAD =  3.00D-04
 OPTENERG=  1.00D-06  OPTSTEP =  3.00D-04  THRGRAD =  1.00D-10  COMPRESS=  1.00D-11  VARMIN  =  1.00D-07  VARMAX  =  1.00D-03
 THRDOUB =  0.00D+00  THRDIV  =  1.00D-05  THRRED  =  1.00D-07  THRPSP  =  1.00D+00  THRDC   =  1.00D-10  THRCS   =  1.00D-10
 THRNRM  =  1.00D-08  THREQ   =  0.00D+00  THRDE   =  1.00D+00  THRREF  =  1.00D-05  SPARFAC =  1.00D+00  THRDLP  =  1.00D-07
 THRDIA  =  1.00D-10  THRDLS  =  1.00D-07  THRGPS  =  0.00D+00  THRKEX  =  0.00D+00  THRDIS  =  2.00D-01  THRVAR  =  1.00D-10
 THRLOC  =  1.00D-06  THRGAP  =  1.00D-06  THRLOCT = -1.00D+00  THRGAPT = -1.00D+00  THRORB  =  1.00D-06  THRMLTP =  0.00D+00
 THRCPQCI=  1.00D-10  KEXTA   =  0.00D+00  THRCOARS=  0.00D+00  SYMTOL  =  1.00D-06  GRADTOL =  1.00D-06  THROVL  =  1.00D-08
 THRORTH =  1.00D-08  GRID    =  1.00D-06  GRIDMAX =  1.00D-03  DTMAX   =  0.00D+00  THROCCDE=  1.00D-01  THROCCDE=  1.00D-01
 THRPRINT=  2.50D-01


 THRESHOLDS:

 ZERO    =  1.00D-22  ONEINT  =  1.00D-22  TWOINT  =  1.00D-22  PREFAC  =  1.00D-14  XXXXXX  =  1.00D-09  EORDER  =  1.00D-04
 ENERGY  =  1.00D-12  ETEST   =  0.00D+00  EDENS   =  0.00D+00  THRDEDEF=  1.00D-06  GRADIENT=  1.00D-05  STEP    =  1.00D-03
 ORBITAL =  1.00D-05  CIVEC   =  1.00D-05  COEFF   =  1.00D-04  PRINTCI =  5.00D-02  PUNCHCI =  9.90D+01  OPTGRAD =  1.00D-08
 OPTENERG=  1.00D-06  OPTSTEP =  1.00D-08  THRGRAD =  1.00D-10  COMPRESS=  1.00D-11  VARMIN  =  1.00D-07  VARMAX  =  1.00D-03
 THRDOUB =  0.00D+00  THRDIV  =  1.00D-05  THRRED  =  1.00D-07  THRPSP  =  1.00D+00  THRDC   =  1.00D-10  THRCS   =  1.00D-10
 THRNRM  =  1.00D-08  THREQ   =  0.00D+00  THRDE   =  1.00D+00  THRREF  =  1.00D-05  SPARFAC =  1.00D+00  THRDLP  =  1.00D-07
 THRDIA  =  1.00D-10  THRDLS  =  1.00D-07  THRGPS  =  0.00D+00  THRKEX  =  0.00D+00  THRDIS  =  2.00D-01  THRVAR  =  1.00D-10
 THRLOC  =  1.00D-06  THRGAP  =  1.00D-06  THRLOCT = -1.00D+00  THRGAPT = -1.00D+00  THRORB  =  1.00D-06  THRMLTP =  0.00D+00
 THRCPQCI=  1.00D-10  KEXTA   =  0.00D+00  THRCOARS=  0.00D+00  SYMTOL  =  1.00D-06  GRADTOL =  1.00D-06  THROVL  =  1.00D-08
 THRORTH =  1.00D-08  GRID    =  1.00D-06  GRIDMAX =  1.00D-03  DTMAX   =  0.00D+00  THROCCDE=  1.00D-01  THROCCDE=  1.00D-01
 THRPRINT=  2.50D-01


 Input parameters for SORTINT:

 COMPRESS =    0.000000
 C_FINAL  =    1.000000
 DEBUG    =   -1.000000
 C_SORT1  =    0.000000
 C_SEWARD =    0.000000
 THRESH   =    0.000000
 IO       =  molpro                                                                                                                          
 SPRI     =    0.000000
 ZUNIT=BOHR


 Geometry recognized as XYZ

 SETTING CHARGE         =     0.00000000D+00                                  
 SETTING SPIN           =     0.00000000D+00                                  
 SETTING BASIS          =    VDZ-F12


 Recomputing integrals since basis changed


 Using spherical harmonics

 Library entry H      S cc-pVDZ-F12          selected for orbital group  1
 Library entry H      P cc-pVDZ-F12          selected for orbital group  1
 Library entry C      S cc-pVDZ-F12          selected for orbital group  2
 Library entry C      P cc-pVDZ-F12          selected for orbital group  2
 Library entry C      D cc-pVDZ-F12          selected for orbital group  2
 Library entry F      S cc-pVDZ-F12          selected for orbital group  3
 Library entry F      P cc-pVDZ-F12          selected for orbital group  3
 Library entry F      D cc-pVDZ-F12          selected for orbital group  3


 PROGRAM * SEWARD (Integral evaluation for generally contracted gaussian basis sets)     Author: Roland Lindh, 1990

 Geometry written to block  1 of record 700


 Point group  Cs  



 ATOMIC COORDINATES

 NR  ATOM    CHARGE       X              Y              Z

   1  H       1.00   -1.608426557    1.678664107    0.000000000
   2  C       6.00    0.497998932    1.136222338    0.000000000
   3  F       9.00    0.231780360   -1.494606595    0.000000000

 Bond lengths in Bohr (Angstrom)

 1-2  2.175148595  2-3  2.644264209
     ( 1.151039067)     ( 1.399284359)

 Bond angles

  1-2-3   98.66271449

 NUCLEAR CHARGE:                   16
 NUMBER OF PRIMITIVE AOS:          93
 NUMBER OF SYMMETRY AOS:           89
 NUMBER OF CONTRACTIONS:           69   (   49A'  +   20A"  )
 NUMBER OF INNER CORE ORBITALS:     0   (    0A'  +    0A"  )
 NUMBER OF OUTER CORE ORBITALS:     2   (    2A'  +    0A"  )
 NUMBER OF VALENCE ORBITALS:        9   (    7A'  +    2A"  )


 NUCLEAR REPULSION ENERGY   25.63348268

 Eigenvalues of metric

         1 0.214E-02 0.323E-02 0.329E-02 0.408E-02 0.441E-02 0.468E-02 0.477E-02 0.991E-02
         2 0.330E-02 0.469E-02 0.885E-01 0.987E-01 0.144E+00 0.192E+00 0.258E+00 0.395E+00


 Contracted 2-electron integrals neglected if value below      1.0D-22

        1426049. INTEGRALS WRITTEN OUT IN     349 BLOCKS ON RECORD 1290 OF FILE 1


 NUMBER OF SORTED TWO-ELECTRON INTEGRALS:    1544830.     BUFFER LENGTH:  32768
 NUMBER OF SEGMENTS:   1  SEGMENT LENGTH:    1544830      RECORD LENGTH: 524288

 Memory used in sort:       2.10 MW

 SORT1 READ     1426049. AND WROTE     1455925. INTEGRALS IN      5 RECORDS. CPU TIME:     0.02 SEC, REAL TIME:     0.04 SEC
 SORT2 READ     1455925. AND WROTE     1544830. INTEGRALS IN      1 RECORDS. CPU TIME:     0.03 SEC, REAL TIME:     0.06 SEC

 FILE SIZES:   FILE 1:    53.0 MBYTE,  FILE 4:    21.0 MBYTE,   TOTAL:     74.0 MBYTE

 OPERATOR DM      FOR CENTER  0  COORDINATES:    0.000000    0.000000    0.000000


 **********************************************************************************************************************************
 DATASETS  * FILE   NREC   LENGTH (MB)   RECORD NAMES
              1      19       42.18       500      610      700      900      950      970     1000      129      960     1100   
                                          VAR    BASINP    GEOM    SYMINP    ZMAT    AOBASIS   BASIS     P2S    ABASIS      S 
                                         1400     1410     1200     1210     1080     1600     1650     1300     1700   
                                           T        V       H0       H01     AOSYM     SMH    MOLCAS    ERIS     OPER   

 PROGRAMS   *        TOTAL       INT
 CPU TIMES  *         0.97      0.83
 REAL TIME  *        12.18 SEC
 DISK USED  *        74.32 MB
 **********************************************************************************************************************************


 PROGRAM * RHF-SCF (CLOSED SHELL)       Authors: W. Meyer, H.-J. Werner


 NUMBER OF ELECTRONS:       8+    8-
 CONVERGENCE THRESHOLDS:    1.00E-10 (Density)    1.00E-13 (Energy)
 MAX. NUMBER OF ITERATIONS:      500
 INTERPOLATION TYPE:            DIIS
 INTERPOLATION STEPS:              2 (START)      1 (STEP)
 LEVEL SHIFTS:                  0.00 (CLOSED)  0.00 (OPEN) 



 Orbital guess generated from atomic densities. Full valence occupancy:    9   2

 Molecular orbital dump at record        2100.2

 Initial occupancy:   7   1

 ITERATION    DDIFF          GRAD             ENERGY        2-EL.EN.            DIPOLE MOMENTS         DIIS   ORB.
    1      0.000D+00      0.000D+00      -137.76237424    155.022409   -0.63254    0.38460    0.00000    0    start
    2      0.000D+00      0.115D-01      -137.79234482    155.157020   -0.64726    0.14187    0.00000    1    diag
    3      0.173D-01      0.593D-02      -137.79928445    156.002318   -0.60142    0.32444    0.00000    2    diag
    4      0.565D-02      0.150D-02      -137.79977578    155.718868   -0.59497    0.31682    0.00000    3    diag
    5      0.127D-02      0.299D-03      -137.79984463    155.768492   -0.59372    0.32653    0.00000    4    diag
    6      0.484D-03      0.864D-04      -137.79985278    155.770578   -0.59285    0.32845    0.00000    5    diag
    7      0.173D-03      0.303D-04      -137.79985377    155.770660   -0.59293    0.32817    0.00000    6    diag
    8      0.763D-04      0.662D-05      -137.79985381    155.770472   -0.59292    0.32790    0.00000    7    diag
    9      0.169D-04      0.142D-05      -137.79985382    155.770477   -0.59294    0.32782    0.00000    8    diag
   10      0.318D-05      0.352D-06      -137.79985382    155.770465   -0.59294    0.32780    0.00000    9    orth
   11      0.962D-06      0.836D-07      -137.79985382    155.770463   -0.59294    0.32780    0.00000    9    diag
   12      0.227D-06      0.181D-07      -137.79985382    155.770463   -0.59294    0.32780    0.00000    9    diag
   13      0.436D-07      0.487D-08      -137.79985382    155.770463   -0.59294    0.32780    0.00000    9    diag
   14      0.122D-07      0.151D-08      -137.79985382    155.770463   -0.59294    0.32780    0.00000    9    diag
   15      0.273D-08      0.256D-09      -137.79985382    155.770463   -0.59294    0.32780    0.00000    9    diag
   16      0.400D-09      0.647D-10      -137.79985382    155.770463   -0.59294    0.32780    0.00000    9    diag
   17      0.132D-09      0.150D-10      -137.79985382    155.770463   -0.59294    0.32780    0.00000    9    diag
   18      0.369D-10      0.280D-11      -137.79985382    155.770463   -0.59294    0.32780    0.00000    0    orth

 Final occupancy:   7   1

 !RHF STATE  1.1 Energy              -137.799853816474
 Nuclear energy                        25.63348268
 One-electron energy                 -241.31856792
 Two-electron energy                   77.88523143
 Virial quotient                       -1.00215093
 !RHF STATE  1.1 Dipole moment         -0.59294147     0.32779971     0.00000000
 Dipole moment /Debye                  -1.50700818     0.83312918     0.00000000

 Orbital energies:

         1.1          2.1          3.1          4.1          5.1          6.1          7.1          8.1          9.1
    -26.338943   -11.394153    -1.633639    -0.911843    -0.729280    -0.650606    -0.432473     0.070648     0.081817

         1.2          2.2          3.2
     -0.683116     0.032444     0.117737


 HOMO      7.1    -0.432473 =     -11.7682eV
 LUMO      2.2     0.032444 =       0.8828eV
 LUMO-HOMO         0.464917 =      12.6510eV


 **********************************************************************************************************************************
 DATASETS  * FILE   NREC   LENGTH (MB)   RECORD NAMES
              1      19       42.18       500      610      700      900      950      970     1000      129      960     1100   
                                          VAR    BASINP    GEOM    SYMINP    ZMAT    AOBASIS   BASIS     P2S    ABASIS      S 
                                         1400     1410     1200     1210     1080     1600     1650     1300     1700   
                                           T        V       H0       H01     AOSYM     SMH    MOLCAS    ERIS     OPER   

              2       4        2.84       700     1000      520     2100   
                                         GEOM     BASIS   MCVARS     RHF  

 PROGRAMS   *        TOTAL    HF-SCF       INT
 CPU TIMES  *         1.22      0.25      0.83
 REAL TIME  *        12.50 SEC
 DISK USED  *        74.32 MB
 **********************************************************************************************************************************


 PROGRAM * CCSD (Closed-shell coupled cluster)     Authors: C. Hampel, H.-J. Werner, 1991, M. Deegan, P.J. Knowles, 1992

                                  CCSD-F12 implementation by  H.-J. Werner, 2007

                   Density fitting integral evaluation by F.R. Manby, 2003,2007, G. Knizia, 2010


 Basis set AUG-CC-PVDZ/JKFIT generated.  Number of basis functions:   204 
 Basis set CC-PVDZ-F12/OPTRI generated.  Number of basis functions:   154 
 Basis set AUG-CC-PVDZ/MP2FIT generated. Number of basis functions:   167 

 Convergence thresholds:  THRVAR = 1.00D-16  THRDEN = 1.00D-12

 CCSD(T)     terms to be evaluated (factor= 1.000)


 Number of core orbitals:           2 (   2   0 )
 Number of closed-shell orbitals:   6 (   5   1 )
 Number of external orbitals:      61 (  42  19 )

 Molecular orbitals read from record     2100.2  Type=RHF/CANONICAL (state 1.1)

 MP2-F12 correlation treatment (H.-J. Werner, 2006)
 ==================================================

 Using MP2-F12 with ansatz 3C(FIX)

 Using projected zeroth-order Hamiltonian (+Z)

 FOCKRIB=T FOCKRIC=T FOCKRIP=T CABSP=T CABSA=T CABSK=T CABSF=T GBC=F EBC=F DMAT=T NOFIK=T NOPAO=1 SOLVE=-1  USEPAO=0
 EXCH_A= T EXCH_B= F EXCH_C= F EXCH_P= F

 Geminal basis:    OPTFULL  GEM_TYPE=SLATER  BETA=1.0  NGEM=6

 Optimizing Gaussian exponents for each gem_beta

 Geminal optimization for beta= 1.0000
 Weight function:   m=0, omega= 1.4646

 Augmented Hessian optimization of geminal fit. Trust ratio= 0.40000
 Convergence reached after   2 iterations. Final gradient= 8.66D-16, Step= 4.23D-06, Delta= 1.28D-09

 Alpha:                 0.19532     0.81920     2.85917     9.50073    35.69989   197.79328
 Coeff:                 0.27070     0.30552     0.18297     0.10986     0.06810     0.04224


 Symmetry turned off. Reference energy:       -137.799853816474

 All pairs explicitly correlated. Number of r12-pairs:           21

 Excluding core orbitals from MO domains

 AO(A)-basis ORBITAL           loaded. Number of functions:      69
 RI(R)-basis CC-PVDZ-F12/OPTRI loaded. Number of functions:     154
 DF-basis AUG-CC-PVDZ/JKFIT    loaded. Number of functions:     204

 Screening thresholds:   THRAO=  1.00D-10  THRMO=  1.00D-10  THRPROD=  1.00D-10
                         THRSW=  1.00D-07  THROV=  1.00D-12  THRAOF12= 1.00D-08

 CPU time for Fock operators                      0.87 sec

 Construction of ABS:
 Smallest eigenvalue of S          4.01E-03  (threshold= 1.00E-08)
 Ratio eigmin/eigmax               8.56E-04  (threshold= 1.00E-09)
 Smallest eigenvalue of S kept     4.01E-03  (threshold= 4.01E-03, 0 functions deleted, 154 kept)

 Construction of CABS:
 Smallest eigenvalue of S          1.13E-05  (threshold= 1.00E-08)
 Ratio eigmin/eigmax               1.13E-05  (threshold= 1.00E-09)
 Smallest eigenvalue of S kept     1.13E-05  (threshold= 1.13E-05, 0 functions deleted, 154 kept)

 CPU time for CABS singles                        0.01 sec

 CABS-singles contribution of  -0.00568617 patched into reference energy.
 New reference energy        -137.80553998

 AO(A)-basis ORBITAL           loaded. Number of functions:      69
 RI(R)-basis CC-PVDZ-F12/OPTRI loaded. Number of functions:     154
 DF-basis AUG-CC-PVDZ/MP2FIT   loaded. Number of functions:     167

 Screening thresholds:   THRAO=  1.00D-10  THRMO=  1.00D-10  THRPROD=  1.00D-10
                         THRSW=  1.00D-07  THROV=  1.00D-12  THRAOF12= 1.00D-08

 CPU time for 3-index integral evaluation         0.39 sec
 CPU time for first  half transformation          0.01 sec (15196.5 MFLOP/sec)
 CPU time for sorting                             0.01 sec
 CPU time for assembly                            0.03 sec (25829.3 MFLOP/sec)
 CPU time for tranop_f12                          0.03 sec (34833.1 MFLOP/sec)
 CPU time for f12 integrals (total)               1.18 sec, Elapsed time:      1.28 sec
 CPU time for f12 matrices (total)                0.02 sec, Elapsed time:      0.02 sec

 Diagonal F12 approximation with fixed coefficients:  TSING= 0.500,  TTRIP= 0.250 (scaled by -1/beta)

 DF-MP2-F12 energy corrections:
 ==============================
 Approx.                                    Singlet             Triplet             Total
 DF-MP2-F12/3*C(DX,FIX)                -0.077554129824     -0.015939645880     -0.093493775704
 DF-MP2-F12/3*C(FIX)                   -0.068669649273     -0.015059623936     -0.083729273208
 DF-MP2-F12/3C(FIX)                    -0.069323029757     -0.015810403520     -0.085133433277

 DF-MP2-F12 correlation energies:
 ================================
 Approx.                                    Singlet             Triplet             Ecorr            Total Energy
 DF-MP2                                -0.227193409420     -0.132929735403     -0.360123144823   -138.165663126743
 DF-MP2-F12/3*C(DX,FIX)                -0.304747539243     -0.148869381283     -0.453616920527   -138.259156902447
 DF-MP2-F12/3*C(FIX)                   -0.295863058692     -0.147989359339     -0.443852418031   -138.249392399952
 DF-MP2-F12/3C(FIX)                    -0.296516439176     -0.148740138923     -0.445256578100   -138.250796560020

 SCS-DF-MP2 energies (F_SING= 1.20000  F_TRIP= 0.62222  F_PARALLEL= 0.33333):
 ============================================================================
 SCS-DF-MP2                            -0.355343926666   -138.160883908586
 SCS-DF-MP2-F12/3*C(DX,FIX)            -0.458326884335   -138.263866866255
 SCS-DF-MP2-F12/3*C(FIX)               -0.447117938464   -138.252657920384
 SCS-DF-MP2-F12/3C(FIX)                -0.448369146786   -138.253909128707

 Symmetry restored.
 Symmetry transformation completed.

 Number of N-1 electron functions:               6
 Number of N-2 electron functions:              21
 Number of singly external CSFs:               229
 Number of doubly external CSFs:             35788
 Total number of CSFs:                       36018

 Length of J-op  integral file:              15.24 MB
 Length of K-op  integral file:              18.55 MB
 Length of 3-ext integral record:             0.00 MB

 Memory could be reduced to 1.16 Mwords without degradation in triples

 Integral transformation finished. Total CPU:   0.03 sec, npass=  1  Memory used:   0.52 MW

 Reference energy:                   -137.80553998

 Adding F12 terms to K(Cij), methodcc=6,  factor= 1.0

 ITER.      SQ.NORM     CORR.ENERGY   TOTAL ENERGY   ENERGY CHANGE        DEN1      VAR(S)    VAR(P)  DIIS     TIME  TIME/IT
   1      1.09695083    -0.36642109  -138.17196108    -0.00619693     0.00702609  0.34D-02  0.26D-02  1  1     2.21     0.05
   2      1.10757935    -0.36703902  -138.17257900    -0.00061792    -0.01014876  0.98D-04  0.62D-03  2  2     2.27     0.05
   3      1.11512047    -0.36800213  -138.17354211    -0.00096311    -0.00278445  0.14D-03  0.90D-04  3  3     2.32     0.05
   4      1.11964956    -0.36817755  -138.17371753    -0.00017542    -0.00151822  0.15D-04  0.25D-04  4  4     2.37     0.05
   5      1.12237245    -0.36823086  -138.17377084    -0.00005331    -0.00049180  0.23D-05  0.40D-05  5  5     2.42     1.16
   6      1.12334399    -0.36822015  -138.17376014     0.00001071    -0.00006410  0.11D-06  0.61D-06  6  6     2.47     1.69
   7      1.12354183    -0.36822000  -138.17375999     0.00000015    -0.00002457  0.36D-07  0.12D-06  6  4     2.52     1.46
   8      1.12355830    -0.36822113  -138.17376111    -0.00000112     0.00000675  0.85D-08  0.18D-07  6  2     2.57     1.28
   9      1.12355762    -0.36822113  -138.17376111     0.00000000     0.00000029  0.33D-08  0.24D-08  6  1     2.62     1.14
  10      1.12355478    -0.36822166  -138.17376164    -0.00000053     0.00000077  0.44D-09  0.53D-09  6  3     2.68     1.04
  11      1.12355280    -0.36822163  -138.17376161     0.00000002    -0.00000024  0.22D-09  0.84D-10  6  6     2.73     0.95
  12      1.12355247    -0.36822180  -138.17376178    -0.00000017     0.00000023  0.23D-10  0.15D-10  6  5     2.78     0.87
  13      1.12355197    -0.36822184  -138.17376182    -0.00000004     0.00000007  0.85D-11  0.29D-11  6  4     2.84     0.81
  14      1.12355146    -0.36822187  -138.17376185    -0.00000004     0.00000010  0.15D-11  0.96D-12  6  2     2.89     0.76
  15      1.12355107    -0.36822189  -138.17376187    -0.00000002     0.00000005  0.21D-12  0.36D-12  6  1     2.94     0.71
  16      1.12355085    -0.36822189  -138.17376187    -0.00000000     0.00000002  0.86D-13  0.67D-13  6  6     2.99     0.67
  17      1.12355070    -0.36822190  -138.17376188    -0.00000001     0.00000002  0.35D-14  0.10D-13  6  3     3.04     0.63
  18      1.12355069    -0.36822190  -138.17376188     0.00000000     0.00000000  0.12D-14  0.19D-14  6  4     3.09     0.60
  19      1.12355067    -0.36822190  -138.17376188    -0.00000000     0.00000000  0.86D-16  0.17D-15  6  5     3.14     0.57
  20      1.12355067    -0.36822190  -138.17376188     0.00000000     0.00000000  0.22D-16  0.34D-16  6  2     3.19     0.55
  21      1.12355067    -0.36822190  -138.17376188    -0.00000000     0.00000000  0.47D-17  0.37D-17  6  1     3.23     0.53
  22      1.12355067    -0.36822190  -138.17376188    -0.00000000     0.00000000  0.10D-17  0.63D-18  6  6     3.29     0.50
  23      1.12355067    -0.36822190  -138.17376188     0.00000000     0.00000000  0.22D-18  0.17D-18  6  3     3.34     0.49
  24      1.12355067    -0.36822190  -138.17376188     0.00000000    -0.00000000  0.53D-19  0.38D-19  6  5     3.38     0.47
  25      1.12355067    -0.36822190  -138.17376188     0.00000000    -0.00000000  0.94D-21  0.37D-20  6  4     3.44     0.45
  26      1.12355067    -0.36822190  -138.17376188    -0.00000000    -0.00000000  0.20D-21  0.65D-21  6  2     3.48     0.44
  27      1.12355067    -0.36822190  -138.17376188    -0.00000000    -0.00000000  0.18D-22  0.41D-22  6  3     3.54     0.42

 Norm of t1 vector:      0.09300713      S-energy:    -0.00000000      T1 diagnostic:  0.01898500
                                                                       D1 diagnostic:  0.05691254

 Doubles amplitudes (print threshold =  0.500E-01):

         I         J         SYM. A    SYM. B    A         B      T(IJ, AB)

         5         5         2         2         1         1     -0.05990653

 Adding energy correction from Wij-K(Fij), methodcc=6  factor= 1.0

  CCSD correlation energy              -0.368221899040
  MP2-F12 correction (uncoupled)       -0.080515069231
  C*T doubles correction               -0.002584516196
  f12b correction                       0.010340452803


 Total CPU time for triples:      0.26 sec


 RESULTS
 =======

  Reference energy                   -137.799853816474
  F12 singles correction               -0.005686165447

 F12 singles corrections added to reference energy

  New reference energy               -137.805539981920

  F12a singlet correction              -0.067970217520
  F12a triplet correction              -0.015129367907
  F12a total correction                -0.083099585427

 F12a corrections for ansatz F12/3C(FIX) added to CCSD energy

  CCSD-F12a singlet pair energy        -0.317523170706
  CCSD-F12a triplet pair energy        -0.133798313760
  CCSD-F12a correlation energy         -0.451321484466

  Triples (T) contribution             -0.013439490743
  Total correlation energy             -0.464760975209

  CCSD-F12a total energy             -138.256861466387
  CCSD[T]-F12a energy                -138.271744499345
  CCSD-T-F12a energy                 -138.269810436016
 !CCSD(T)-F12a total energy          -138.270300957130

 F12b corrections for ansatz F12/3C(FIX) added to CCSD(T)-F12a energy

  CCSD-F12b singlet pair energy        -0.308157232741
  CCSD-F12b triplet pair energy        -0.132823798922
  CCSD-F12b correlation energy         -0.440981031663

  Triples (T) contribution             -0.013439490743
  Total correlation energy             -0.454420522406

  CCSD-F12b total energy             -138.246521013583
  CCSD[T]-F12b energy                -138.261404046542
  CCSD-T-F12b energy                 -138.259469983212
 !CCSD(T)-F12b total energy          -138.259960504326

 Timing summary (sec):

 STEP                 CPU(USER)    SYS     CPU(TOT)    WALL
 Transformation          0.03      0.02      0.05      0.05
 CCSD iterations         1.42      0.11      1.53     11.41
 Triples                 0.26      0.00      0.26      0.28
 MP2-F12                 2.10      0.15      2.25      2.49
 F12b energy             0.03      0.00      0.03      0.03

 Program statistics:

 Available memory in ccsd:              1999999744
 Min. memory needed in ccsd:                136839
 Max. memory used in ccsd:                  163083
 Max. memory used in cckext:                208330 (28 integral passes)



 **********************************************************************************************************************************
 DATASETS  * FILE   NREC   LENGTH (MB)   RECORD NAMES
              1      20       45.77       500      610      700      900      950      970     1000      129      960     1100   
                                          VAR    BASINP    GEOM    SYMINP    ZMAT    AOBASIS   BASIS     P2S    ABASIS      S 
                                         1400     1410     1200     1210     1080     1600     1650     1300     1700     1380   
                                           T        V       H0       H01     AOSYM     SMH    MOLCAS    ERIS     OPER     JKOP   

              2       6        2.90       700     1000      520     2100     7360     7350   
                                         GEOM     BASIS   MCVARS     RHF    F12ABS    EF12   

 PROGRAMS   *        TOTAL   CCSD(T)    HF-SCF       INT
 CPU TIMES  *         5.09      3.87      0.25      0.83
 REAL TIME  *        26.80 SEC
 DISK USED  *        97.74 MB
 **********************************************************************************************************************************
 SETTING EE(1)          =      -138.25996050  AU                              


 Computing numerical gradient using default procedure for command CCSD(T)-F12

 *** Long output written to logfile /home/mdavis/f12eom_optimizer/tests/slurm/molpro_step.log ***


 Running default procedure: HF-SCF000  CCSD(T)-F12


 Generated   3 symmetrical displacements

 Numerical gradient for CCSD(T)-F12

 Total Energy          -138.25996050  Dipole moments:    0.000000    0.000000    0.000000

 Atom          dE/dx               dE/dy               dE/dz                  d2E/dx2             d2E/dy2             d2E/dz2
   1        -0.016968811         0.002147833         0.000000000            0.000000000         0.000000000         0.000000000
   2         0.023944239         0.049204015         0.000000000            0.000000000         0.000000000         0.000000000
   3        -0.006975428        -0.051351848         0.000000000            0.000000000         0.000000000         0.000000000

 Recomputing wavefunction at initial geometry


 **********************************************************************************************************************************
 DATASETS  * FILE   NREC   LENGTH (MB)   RECORD NAMES
              1      21       45.99       500      610      700      900      701      950      970     1000      129      960   
                                          VAR    BASINP    GEOM    SYMINP    GEOM     ZMAT    AOBASIS   BASIS     P2S    ABASIS    
                                         1100     1400     1410     1200     1210     1080     1600     1650     1300     1700   
                                           S        T        V       H0       H01     AOSYM     SMH    MOLCAS    ERIS     OPER   
                                         1380   
                                         JKOP   

              2       8        3.12       700     1000      520     2100     7360     7350      701     5600   
                                         GEOM     BASIS   MCVARS     RHF    F12ABS    EF12     GEOM     GINFO   

 PROGRAMS   *        TOTAL    FORCES    HF-SCF       INT   CCSD(T)    HF-SCF       INT
 CPU TIMES  *        41.11      3.77      0.03     32.21      3.87      0.25      0.83
 REAL TIME  *        71.84 SEC
 DISK USED  *       100.73 MB
 **********************************************************************************************************************************
 EE(1)            =     -138.259960504326 AU
 GRADX(1:3)       = [     -0.016968811180    0.023944238955   -0.006975427775] AU
 GRADY(1:3)       = [      0.002147833064    0.049204014634   -0.051351847697] AU
 GRADZ(1:3)       = [      0.000000000000    0.000000000000    0.000000000000] AU

 CCSD(T)-F12/cc-pVDZ-F12 energy=   -138.259960504326

     CCSD(T)-F12          HF-SCF     CCSD(T)-F12          HF-SCF
   -138.25996050   -137.79985382   -138.25996050   -137.79985382
 **********************************************************************************************************************************
 Molpro calculation terminated
