
 Primary working directories    : /scratch/mdavis/molpro_step_2022-08-17_21_59_16/molpro.3GvaLWZail
 Secondary working directories  : /scratch/mdavis/molpro_step_2022-08-17_21_59_16/molpro.3GvaLWZail
 Wavefunction directory         : /home/mdavis/f12eom_optimizer/tests/slurm/./
 Main file repository           : /scratch/mdavis/molpro_step_2022-08-17_21_59_16/molpro.3GvaLWZail/

 id        : olemiss

 Nodes     nprocs
 node17       1

 Using customized tuning parameters: mindgm=1; mindgv=20; mindgc=4; mindgr=1; noblas=0; minvec=7
 default implementation of scratch files=df  


 Variables initialized (945), CPU time= 0.01 sec
 ***,part of geometry opt run
 memory, 2000.0, m;
 gthresh,energy=1.d-12,zero=1.d-22,oneint=1.d-22,twoint=1.d-22;
 gthresh,optgrad=1.d-8,optstep=1.d-8;
 nocompress;
 bohr;
 geometry={
      3
 Fragment 1
     H  -1.6089091296   1.6779976331   0.0000000000
     C   0.4991301799   1.1371215993   0.0000000000
     F   0.2311316843  -1.4948393824   0.0000000000
      }
 
 set,charge=0
 set,spin=0
 basis=vdz-f12
 hf,maxit=500;wf,charge=0,spin=0;accu,20;
 ccsd(t)-f12,maxit=250;wf,charge=0,spin=0;orbital,IGNORE_ERROR;
 ee(1)=energy(2)
 forces,varsav
 SHOW[f18.12],ee(1)
 SHOW[f18.12],GRADX
 SHOW[f18.12],GRADY
 SHOW[f18.12],GRADZ
 Commands  initialized (802), CPU time= 0.01 sec, 659 directives.
 Default parameters read. Elapsed time= 0.09 sec

 Checking input...
 Passed
1


                                         ***  PROGRAM SYSTEM MOLPRO  ***
                                       Copyright, TTI GmbH Stuttgart, 2015
                                    Version 2020.1 linked Oct  6 2020 12:04:11


 **********************************************************************************************************************************
 LABEL *   part of geometry opt run                                                      
  64 bit serial version                                                                  DATE: 17-Aug-22          TIME: 22:00:02  
 **********************************************************************************************************************************

 SHA1:             8c27446f6450a7499e38f603e13c65f775101d37
 **********************************************************************************************************************************

 Memory per process:      2000 MW
 Total memory per node:   2000 MW

 GA preallocation disabled
 GA check disabled

 Variable memory set to 2000.0 MW


 THRESHOLDS:

 ZERO    =  1.00D-22  ONEINT  =  1.00D-22  TWOINT  =  1.00D-22  PREFAC  =  1.00D-14  XXXXXX  =  1.00D-09  EORDER  =  1.00D-04
 ENERGY  =  1.00D-12  ETEST   =  0.00D+00  EDENS   =  0.00D+00  THRDEDEF=  1.00D-06  GRADIENT=  1.00D-05  STEP    =  1.00D-03
 ORBITAL =  1.00D-05  CIVEC   =  1.00D-05  COEFF   =  1.00D-04  PRINTCI =  5.00D-02  PUNCHCI =  9.90D+01  OPTGRAD =  3.00D-04
 OPTENERG=  1.00D-06  OPTSTEP =  3.00D-04  THRGRAD =  1.00D-10  COMPRESS=  1.00D-11  VARMIN  =  1.00D-07  VARMAX  =  1.00D-03
 THRDOUB =  0.00D+00  THRDIV  =  1.00D-05  THRRED  =  1.00D-07  THRPSP  =  1.00D+00  THRDC   =  1.00D-10  THRCS   =  1.00D-10
 THRNRM  =  1.00D-08  THREQ   =  0.00D+00  THRDE   =  1.00D+00  THRREF  =  1.00D-05  SPARFAC =  1.00D+00  THRDLP  =  1.00D-07
 THRDIA  =  1.00D-10  THRDLS  =  1.00D-07  THRGPS  =  0.00D+00  THRKEX  =  0.00D+00  THRDIS  =  2.00D-01  THRVAR  =  1.00D-10
 THRLOC  =  1.00D-06  THRGAP  =  1.00D-06  THRLOCT = -1.00D+00  THRGAPT = -1.00D+00  THRORB  =  1.00D-06  THRMLTP =  0.00D+00
 THRCPQCI=  1.00D-10  KEXTA   =  0.00D+00  THRCOARS=  0.00D+00  SYMTOL  =  1.00D-06  GRADTOL =  1.00D-06  THROVL  =  1.00D-08
 THRORTH =  1.00D-08  GRID    =  1.00D-06  GRIDMAX =  1.00D-03  DTMAX   =  0.00D+00  THROCCDE=  1.00D-01  THROCCDE=  1.00D-01
 THRPRINT=  2.50D-01


 THRESHOLDS:

 ZERO    =  1.00D-22  ONEINT  =  1.00D-22  TWOINT  =  1.00D-22  PREFAC  =  1.00D-14  XXXXXX  =  1.00D-09  EORDER  =  1.00D-04
 ENERGY  =  1.00D-12  ETEST   =  0.00D+00  EDENS   =  0.00D+00  THRDEDEF=  1.00D-06  GRADIENT=  1.00D-05  STEP    =  1.00D-03
 ORBITAL =  1.00D-05  CIVEC   =  1.00D-05  COEFF   =  1.00D-04  PRINTCI =  5.00D-02  PUNCHCI =  9.90D+01  OPTGRAD =  1.00D-08
 OPTENERG=  1.00D-06  OPTSTEP =  1.00D-08  THRGRAD =  1.00D-10  COMPRESS=  1.00D-11  VARMIN  =  1.00D-07  VARMAX  =  1.00D-03
 THRDOUB =  0.00D+00  THRDIV  =  1.00D-05  THRRED  =  1.00D-07  THRPSP  =  1.00D+00  THRDC   =  1.00D-10  THRCS   =  1.00D-10
 THRNRM  =  1.00D-08  THREQ   =  0.00D+00  THRDE   =  1.00D+00  THRREF  =  1.00D-05  SPARFAC =  1.00D+00  THRDLP  =  1.00D-07
 THRDIA  =  1.00D-10  THRDLS  =  1.00D-07  THRGPS  =  0.00D+00  THRKEX  =  0.00D+00  THRDIS  =  2.00D-01  THRVAR  =  1.00D-10
 THRLOC  =  1.00D-06  THRGAP  =  1.00D-06  THRLOCT = -1.00D+00  THRGAPT = -1.00D+00  THRORB  =  1.00D-06  THRMLTP =  0.00D+00
 THRCPQCI=  1.00D-10  KEXTA   =  0.00D+00  THRCOARS=  0.00D+00  SYMTOL  =  1.00D-06  GRADTOL =  1.00D-06  THROVL  =  1.00D-08
 THRORTH =  1.00D-08  GRID    =  1.00D-06  GRIDMAX =  1.00D-03  DTMAX   =  0.00D+00  THROCCDE=  1.00D-01  THROCCDE=  1.00D-01
 THRPRINT=  2.50D-01


 Input parameters for SORTINT:

 COMPRESS =    0.000000
 C_FINAL  =    1.000000
 DEBUG    =   -1.000000
 C_SORT1  =    0.000000
 C_SEWARD =    0.000000
 THRESH   =    0.000000
 IO       =  molpro                                                                                                                          
 SPRI     =    0.000000
 ZUNIT=BOHR


 Geometry recognized as XYZ

 SETTING CHARGE         =     0.00000000D+00                                  
 SETTING SPIN           =     0.00000000D+00                                  
 SETTING BASIS          =    VDZ-F12


 Recomputing integrals since basis changed


 Using spherical harmonics

 Library entry H      S cc-pVDZ-F12          selected for orbital group  1
 Library entry H      P cc-pVDZ-F12          selected for orbital group  1
 Library entry C      S cc-pVDZ-F12          selected for orbital group  2
 Library entry C      P cc-pVDZ-F12          selected for orbital group  2
 Library entry C      D cc-pVDZ-F12          selected for orbital group  2
 Library entry F      S cc-pVDZ-F12          selected for orbital group  3
 Library entry F      P cc-pVDZ-F12          selected for orbital group  3
 Library entry F      D cc-pVDZ-F12          selected for orbital group  3


 PROGRAM * SEWARD (Integral evaluation for generally contracted gaussian basis sets)     Author: Roland Lindh, 1990

 Geometry written to block  1 of record 700


 Point group  Cs  



 ATOMIC COORDINATES

 NR  ATOM    CHARGE       X              Y              Z

   1  H       1.00   -1.608909130    1.677997633    0.000000000
   2  C       6.00    0.499130180    1.137121599    0.000000000
   3  F       9.00    0.231131684   -1.494839382    0.000000000

 Bond lengths in Bohr (Angstrom)

 1-2  2.176321809  2-3  2.645570223
     ( 1.151659905)     ( 1.399975472)

 Bond angles

  1-2-3   98.57631642

 NUCLEAR CHARGE:                   16
 NUMBER OF PRIMITIVE AOS:          93
 NUMBER OF SYMMETRY AOS:           89
 NUMBER OF CONTRACTIONS:           69   (   49A'  +   20A"  )
 NUMBER OF INNER CORE ORBITALS:     0   (    0A'  +    0A"  )
 NUMBER OF OUTER CORE ORBITALS:     2   (    2A'  +    0A"  )
 NUMBER OF VALENCE ORBITALS:        9   (    7A'  +    2A"  )


 NUCLEAR REPULSION ENERGY   25.62222104

 Eigenvalues of metric

         1 0.214E-02 0.323E-02 0.329E-02 0.408E-02 0.442E-02 0.468E-02 0.478E-02 0.991E-02
         2 0.330E-02 0.469E-02 0.885E-01 0.987E-01 0.145E+00 0.192E+00 0.258E+00 0.395E+00


 Contracted 2-electron integrals neglected if value below      1.0D-22

        1426049. INTEGRALS WRITTEN OUT IN     349 BLOCKS ON RECORD 1290 OF FILE 1


 NUMBER OF SORTED TWO-ELECTRON INTEGRALS:    1544830.     BUFFER LENGTH:  32768
 NUMBER OF SEGMENTS:   1  SEGMENT LENGTH:    1544830      RECORD LENGTH: 524288

 Memory used in sort:       2.10 MW

 SORT1 READ     1426049. AND WROTE     1455925. INTEGRALS IN      5 RECORDS. CPU TIME:     0.03 SEC, REAL TIME:     0.03 SEC
 SORT2 READ     1455925. AND WROTE     1544830. INTEGRALS IN      1 RECORDS. CPU TIME:     0.05 SEC, REAL TIME:     0.06 SEC

 FILE SIZES:   FILE 1:    53.0 MBYTE,  FILE 4:    21.0 MBYTE,   TOTAL:     74.0 MBYTE

 OPERATOR DM      FOR CENTER  0  COORDINATES:    0.000000    0.000000    0.000000


 **********************************************************************************************************************************
 DATASETS  * FILE   NREC   LENGTH (MB)   RECORD NAMES
              1      19       42.18       500      610      700      900      950      970     1000      129      960     1100   
                                          VAR    BASINP    GEOM    SYMINP    ZMAT    AOBASIS   BASIS     P2S    ABASIS      S 
                                         1400     1410     1200     1210     1080     1600     1650     1300     1700   
                                           T        V       H0       H01     AOSYM     SMH    MOLCAS    ERIS     OPER   

 PROGRAMS   *        TOTAL       INT
 CPU TIMES  *         1.03      0.89
 REAL TIME  *         2.59 SEC
 DISK USED  *        74.32 MB
 **********************************************************************************************************************************


 PROGRAM * RHF-SCF (CLOSED SHELL)       Authors: W. Meyer, H.-J. Werner


 NUMBER OF ELECTRONS:       8+    8-
 CONVERGENCE THRESHOLDS:    1.00E-10 (Density)    1.00E-13 (Energy)
 MAX. NUMBER OF ITERATIONS:      500
 INTERPOLATION TYPE:            DIIS
 INTERPOLATION STEPS:              2 (START)      1 (STEP)
 LEVEL SHIFTS:                  0.00 (CLOSED)  0.00 (OPEN) 



 Orbital guess generated from atomic densities. Full valence occupancy:    9   2

 Molecular orbital dump at record        2100.2

 Initial occupancy:   7   1

 ITERATION    DDIFF          GRAD             ENERGY        2-EL.EN.            DIPOLE MOMENTS         DIIS   ORB.
    1      0.000D+00      0.000D+00      -137.76215920    155.007243   -0.63115    0.38730    0.00000    0    start
    2      0.000D+00      0.115D-01      -137.79216228    155.134883   -0.64676    0.14291    0.00000    1    diag
    3      0.173D-01      0.595D-02      -137.79914507    155.984169   -0.60059    0.32607    0.00000    2    diag
    4      0.567D-02      0.150D-02      -137.79963705    155.700395   -0.59411    0.31845    0.00000    3    diag
    5      0.127D-02      0.299D-03      -137.79970598    155.749946   -0.59285    0.32813    0.00000    4    diag
    6      0.485D-03      0.865D-04      -137.79971415    155.752036   -0.59198    0.33006    0.00000    5    diag
    7      0.173D-03      0.303D-04      -137.79971515    155.752114   -0.59206    0.32977    0.00000    6    diag
    8      0.764D-04      0.664D-05      -137.79971519    155.751926   -0.59206    0.32949    0.00000    7    diag
    9      0.170D-04      0.142D-05      -137.79971519    155.751931   -0.59207    0.32942    0.00000    8    diag
   10      0.319D-05      0.353D-06      -137.79971519    155.751919   -0.59208    0.32940    0.00000    9    orth
   11      0.964D-06      0.838D-07      -137.79971519    155.751917   -0.59207    0.32939    0.00000    9    diag
   12      0.228D-06      0.182D-07      -137.79971519    155.751916   -0.59207    0.32939    0.00000    9    diag
   13      0.437D-07      0.488D-08      -137.79971519    155.751917   -0.59207    0.32939    0.00000    9    diag
   14      0.123D-07      0.151D-08      -137.79971519    155.751916   -0.59207    0.32939    0.00000    9    diag
   15      0.274D-08      0.257D-09      -137.79971519    155.751916   -0.59207    0.32939    0.00000    9    diag
   16      0.402D-09      0.648D-10      -137.79971519    155.751916   -0.59207    0.32939    0.00000    9    diag
   17      0.133D-09      0.151D-10      -137.79971519    155.751916   -0.59207    0.32939    0.00000    9    diag
   18      0.371D-10      0.281D-11      -137.79971519    155.751916   -0.59207    0.32939    0.00000    0    orth

 Final occupancy:   7   1

 !RHF STATE  1.1 Energy              -137.799715191192
 Nuclear energy                        25.62222104
 One-electron energy                 -241.29789444
 Two-electron energy                   77.87595821
 Virial quotient                       -1.00216036
 !RHF STATE  1.1 Dipole moment         -0.59207334     0.32939344     0.00000000
 Dipole moment /Debye                  -1.50480176     0.83717977     0.00000000

 Orbital energies:

         1.1          2.1          3.1          4.1          5.1          6.1          7.1          8.1          9.1
    -26.338763   -11.394378    -1.633293    -0.911678    -0.728994    -0.650319    -0.432679     0.070663     0.081810

         1.2          2.2          3.2
     -0.682884     0.032359     0.117690


 HOMO      7.1    -0.432679 =     -11.7738eV
 LUMO      2.2     0.032359 =       0.8805eV
 LUMO-HOMO         0.465039 =      12.6543eV


 **********************************************************************************************************************************
 DATASETS  * FILE   NREC   LENGTH (MB)   RECORD NAMES
              1      19       42.18       500      610      700      900      950      970     1000      129      960     1100   
                                          VAR    BASINP    GEOM    SYMINP    ZMAT    AOBASIS   BASIS     P2S    ABASIS      S 
                                         1400     1410     1200     1210     1080     1600     1650     1300     1700   
                                           T        V       H0       H01     AOSYM     SMH    MOLCAS    ERIS     OPER   

              2       4        2.84       700     1000      520     2100   
                                         GEOM     BASIS   MCVARS     RHF  

 PROGRAMS   *        TOTAL    HF-SCF       INT
 CPU TIMES  *         1.30      0.27      0.89
 REAL TIME  *         2.92 SEC
 DISK USED  *        74.32 MB
 **********************************************************************************************************************************


 PROGRAM * CCSD (Closed-shell coupled cluster)     Authors: C. Hampel, H.-J. Werner, 1991, M. Deegan, P.J. Knowles, 1992

                                  CCSD-F12 implementation by  H.-J. Werner, 2007

                   Density fitting integral evaluation by F.R. Manby, 2003,2007, G. Knizia, 2010


 Basis set AUG-CC-PVDZ/JKFIT generated.  Number of basis functions:   204 
 Basis set CC-PVDZ-F12/OPTRI generated.  Number of basis functions:   154 
 Basis set AUG-CC-PVDZ/MP2FIT generated. Number of basis functions:   167 

 Convergence thresholds:  THRVAR = 1.00D-16  THRDEN = 1.00D-12

 CCSD(T)     terms to be evaluated (factor= 1.000)


 Number of core orbitals:           2 (   2   0 )
 Number of closed-shell orbitals:   6 (   5   1 )
 Number of external orbitals:      61 (  42  19 )

 Molecular orbitals read from record     2100.2  Type=RHF/CANONICAL (state 1.1)

 MP2-F12 correlation treatment (H.-J. Werner, 2006)
 ==================================================

 Using MP2-F12 with ansatz 3C(FIX)

 Using projected zeroth-order Hamiltonian (+Z)

 FOCKRIB=T FOCKRIC=T FOCKRIP=T CABSP=T CABSA=T CABSK=T CABSF=T GBC=F EBC=F DMAT=T NOFIK=T NOPAO=1 SOLVE=-1  USEPAO=0
 EXCH_A= T EXCH_B= F EXCH_C= F EXCH_P= F

 Geminal basis:    OPTFULL  GEM_TYPE=SLATER  BETA=1.0  NGEM=6

 Optimizing Gaussian exponents for each gem_beta

 Geminal optimization for beta= 1.0000
 Weight function:   m=0, omega= 1.4646

 Augmented Hessian optimization of geminal fit. Trust ratio= 0.40000
 Convergence reached after   2 iterations. Final gradient= 8.66D-16, Step= 4.23D-06, Delta= 1.28D-09

 Alpha:                 0.19532     0.81920     2.85917     9.50073    35.69989   197.79328
 Coeff:                 0.27070     0.30552     0.18297     0.10986     0.06810     0.04224


 Symmetry turned off. Reference energy:       -137.799715191192

 All pairs explicitly correlated. Number of r12-pairs:           21

 Excluding core orbitals from MO domains

 AO(A)-basis ORBITAL           loaded. Number of functions:      69
 RI(R)-basis CC-PVDZ-F12/OPTRI loaded. Number of functions:     154
 DF-basis AUG-CC-PVDZ/JKFIT    loaded. Number of functions:     204

 Screening thresholds:   THRAO=  1.00D-10  THRMO=  1.00D-10  THRPROD=  1.00D-10
                         THRSW=  1.00D-07  THROV=  1.00D-12  THRAOF12= 1.00D-08

 CPU time for Fock operators                      0.90 sec

 Construction of ABS:
 Smallest eigenvalue of S          4.02E-03  (threshold= 1.00E-08)
 Ratio eigmin/eigmax               8.57E-04  (threshold= 1.00E-09)
 Smallest eigenvalue of S kept     4.02E-03  (threshold= 4.02E-03, 0 functions deleted, 154 kept)

 Construction of CABS:
 Smallest eigenvalue of S          1.13E-05  (threshold= 1.00E-08)
 Ratio eigmin/eigmax               1.13E-05  (threshold= 1.00E-09)
 Smallest eigenvalue of S kept     1.13E-05  (threshold= 1.13E-05, 0 functions deleted, 154 kept)

 CPU time for CABS singles                        0.01 sec

 CABS-singles contribution of  -0.00568164 patched into reference energy.
 New reference energy        -137.80539683

 AO(A)-basis ORBITAL           loaded. Number of functions:      69
 RI(R)-basis CC-PVDZ-F12/OPTRI loaded. Number of functions:     154
 DF-basis AUG-CC-PVDZ/MP2FIT   loaded. Number of functions:     167

 Screening thresholds:   THRAO=  1.00D-10  THRMO=  1.00D-10  THRPROD=  1.00D-10
                         THRSW=  1.00D-07  THROV=  1.00D-12  THRAOF12= 1.00D-08

 CPU time for 3-index integral evaluation         0.43 sec
 CPU time for first  half transformation          0.01 sec (15196.5 MFLOP/sec)
 CPU time for assembly                            0.03 sec (25829.3 MFLOP/sec)
 CPU time for tranop_f12                          0.04 sec (26124.8 MFLOP/sec)
 CPU time for f12 integrals (total)               1.18 sec, Elapsed time:      1.27 sec
 CPU time for f12 matrices (total)                0.01 sec, Elapsed time:      0.03 sec

 Diagonal F12 approximation with fixed coefficients:  TSING= 0.500,  TTRIP= 0.250 (scaled by -1/beta)

 DF-MP2-F12 energy corrections:
 ==============================
 Approx.                                    Singlet             Triplet             Total
 DF-MP2-F12/3*C(DX,FIX)                -0.077549135716     -0.015938017524     -0.093487153240
 DF-MP2-F12/3*C(FIX)                   -0.068667128662     -0.015058581668     -0.083725710330
 DF-MP2-F12/3C(FIX)                    -0.069320523569     -0.015809128157     -0.085129651726

 DF-MP2-F12 correlation energies:
 ================================
 Approx.                                    Singlet             Triplet             Ecorr            Total Energy
 DF-MP2                                -0.227224859728     -0.132941051595     -0.360165911323   -138.165562737811
 DF-MP2-F12/3*C(DX,FIX)                -0.304773995444     -0.148879069119     -0.453653064563   -138.259049891051
 DF-MP2-F12/3*C(FIX)                   -0.295891988390     -0.147999633263     -0.443891621653   -138.249288448141
 DF-MP2-F12/3C(FIX)                    -0.296545383297     -0.148750179752     -0.445295563048   -138.250692389536

 SCS-DF-MP2 energies (F_SING= 1.20000  F_TRIP= 0.62222  F_PARALLEL= 0.33333):
 ============================================================================
 SCS-DF-MP2                            -0.355388708222   -138.160785534710
 SCS-DF-MP2-F12/3*C(DX,FIX)            -0.458364659763   -138.263761486251
 SCS-DF-MP2-F12/3*C(FIX)               -0.447159046765   -138.252555873253
 SCS-DF-MP2-F12/3C(FIX)                -0.448410127357   -138.253806953845

 Symmetry restored.
 Symmetry transformation completed.

 Number of N-1 electron functions:               6
 Number of N-2 electron functions:              21
 Number of singly external CSFs:               229
 Number of doubly external CSFs:             35788
 Total number of CSFs:                       36018

 Length of J-op  integral file:              15.24 MB
 Length of K-op  integral file:              18.55 MB
 Length of 3-ext integral record:             0.00 MB

 Memory could be reduced to 1.16 Mwords without degradation in triples

 Integral transformation finished. Total CPU:   0.03 sec, npass=  1  Memory used:   0.52 MW

 Reference energy:                   -137.80539683

 Adding F12 terms to K(Cij), methodcc=6,  factor= 1.0

 ITER.      SQ.NORM     CORR.ENERGY   TOTAL ENERGY   ENERGY CHANGE        DEN1      VAR(S)    VAR(P)  DIIS     TIME  TIME/IT
   1      1.09699635    -0.36646490  -138.17186173    -0.00619801     0.00703861  0.34D-02  0.26D-02  1  1     2.24     0.20
   2      1.10763531    -0.36708215  -138.17247898    -0.00061725    -0.01015742  0.98D-04  0.63D-03  2  2     2.28     0.13
   3      1.11518592    -0.36804640  -138.17344323    -0.00096425    -0.00278709  0.14D-03  0.90D-04  3  3     2.33     0.10
   4      1.11971909    -0.36822155  -138.17361837    -0.00017514    -0.00151970  0.16D-04  0.25D-04  4  4     2.38     0.09
   5      1.12244450    -0.36827481  -138.17367163    -0.00005326    -0.00049247  0.23D-05  0.40D-05  5  5     2.43     0.08
   6      1.12341697    -0.36826406  -138.17366089     0.00001074    -0.00006416  0.11D-06  0.61D-06  6  6     2.49     0.08
   7      1.12361521    -0.36826386  -138.17366068     0.00000021    -0.00002465  0.36D-07  0.12D-06  6  4     2.52     0.08
   8      1.12363189    -0.36826497  -138.17366179    -0.00000111     0.00000673  0.84D-08  0.18D-07  6  2     2.57     0.07
   9      1.12363124    -0.36826495  -138.17366178     0.00000001     0.00000029  0.33D-08  0.24D-08  6  1     2.63     0.07
  10      1.12362842    -0.36826548  -138.17366231    -0.00000053     0.00000077  0.43D-09  0.53D-09  6  3     2.67     0.07
  11      1.12362644    -0.36826546  -138.17366228     0.00000003    -0.00000024  0.21D-09  0.84D-10  6  6     2.71     0.07
  12      1.12362611    -0.36826562  -138.17366245    -0.00000017     0.00000023  0.23D-10  0.15D-10  6  5     2.77     0.07
  13      1.12362561    -0.36826566  -138.17366249    -0.00000004     0.00000007  0.85D-11  0.29D-11  6  4     2.82     0.07
  14      1.12362510    -0.36826570  -138.17366252    -0.00000004     0.00000010  0.16D-11  0.96D-12  6  2     2.87     0.07
  15      1.12362471    -0.36826571  -138.17366254    -0.00000002     0.00000005  0.22D-12  0.36D-12  6  1     2.92     0.06
  16      1.12362449    -0.36826572  -138.17366254    -0.00000000     0.00000002  0.87D-13  0.67D-13  6  6     2.97     0.06
  17      1.12362434    -0.36826572  -138.17366255    -0.00000001     0.00000002  0.35D-14  0.10D-13  6  3     3.01     0.06
  18      1.12362433    -0.36826572  -138.17366255     0.00000000     0.00000000  0.12D-14  0.20D-14  6  4     3.06     0.06
  19      1.12362431    -0.36826572  -138.17366255    -0.00000000     0.00000000  0.87D-16  0.18D-15  6  5     3.10     0.06
  20      1.12362431    -0.36826572  -138.17366255     0.00000000     0.00000000  0.22D-16  0.34D-16  6  2     3.16     0.06
  21      1.12362431    -0.36826572  -138.17366255    -0.00000000     0.00000000  0.47D-17  0.37D-17  6  1     3.20     0.06
  22      1.12362431    -0.36826572  -138.17366255    -0.00000000     0.00000000  0.10D-17  0.63D-18  6  6     3.25     0.06
  23      1.12362431    -0.36826572  -138.17366255     0.00000000     0.00000000  0.23D-18  0.17D-18  6  3     3.30     0.06
  24      1.12362431    -0.36826572  -138.17366255     0.00000000    -0.00000000  0.53D-19  0.38D-19  6  5     3.35     0.06
  25      1.12362431    -0.36826572  -138.17366255     0.00000000    -0.00000000  0.97D-21  0.37D-20  6  4     3.40     0.06
  26      1.12362431    -0.36826572  -138.17366255    -0.00000000    -0.00000000  0.21D-21  0.65D-21  6  2     3.44     0.06
  27      1.12362431    -0.36826572  -138.17366255    -0.00000000    -0.00000000  0.19D-22  0.42D-22  6  3     3.49     0.06

 Norm of t1 vector:      0.09310497      S-energy:    -0.00000000      T1 diagnostic:  0.01900497
                                                                       D1 diagnostic:  0.05697491

 Doubles amplitudes (print threshold =  0.500E-01):

         I         J         SYM. A    SYM. B    A         B      T(IJ, AB)

         5         5         2         2         1         1     -0.05990986

 Adding energy correction from Wij-K(Fij), methodcc=6  factor= 1.0

  CCSD correlation energy              -0.368265723222
  MP2-F12 correction (uncoupled)       -0.080512156806
  C*T doubles correction               -0.002583934944
  f12b correction                       0.010341587850


 Total CPU time for triples:      0.27 sec


 RESULTS
 =======

  Reference energy                   -137.799715191192
  F12 singles correction               -0.005681635296

 F12 singles corrections added to reference energy

  New reference energy               -137.805396826488

  F12a singlet correction              -0.067967769792
  F12a triplet correction              -0.015128321958
  F12a total correction                -0.083096091750

 F12a corrections for ansatz F12/3C(FIX) added to CCSD energy

  CCSD-F12a singlet pair energy        -0.317562122558
  CCSD-F12a triplet pair energy        -0.133799692414
  CCSD-F12a correlation energy         -0.451361814972

  Triples (T) contribution             -0.013448228095
  Total correlation energy             -0.464810043067

  CCSD-F12a total energy             -138.256758641460
  CCSD[T]-F12a energy                -138.271653379432
  CCSD-T-F12a energy                 -138.269715302025
 !CCSD(T)-F12a total energy          -138.270206869555

 F12b corrections for ansatz F12/3C(FIX) added to CCSD(T)-F12a energy

  CCSD-F12b singlet pair energy        -0.308195060939
  CCSD-F12b triplet pair energy        -0.132825166182
  CCSD-F12b correlation energy         -0.441020227121

  Triples (T) contribution             -0.013448228095
  Total correlation energy             -0.454468455217

  CCSD-F12b total energy             -138.246417053609
  CCSD[T]-F12b energy                -138.261311791581
  CCSD-T-F12b energy                 -138.259373714175
 !CCSD(T)-F12b total energy          -138.259865281704

 Timing summary (sec):

 STEP                 CPU(USER)    SYS     CPU(TOT)    WALL
 Transformation          0.04      0.01      0.05      0.04
 CCSD iterations         1.32      0.16      1.48      1.67
 Triples                 0.27      0.01      0.28      0.27
 MP2-F12                 2.13      0.12      2.25      2.53
 F12b energy             0.03      0.00      0.03      0.03

 Program statistics:

 Available memory in ccsd:              1999999744
 Min. memory needed in ccsd:                136839
 Max. memory used in ccsd:                  163083
 Max. memory used in cckext:                208330 (28 integral passes)



 **********************************************************************************************************************************
 DATASETS  * FILE   NREC   LENGTH (MB)   RECORD NAMES
              1      20       45.77       500      610      700      900      950      970     1000      129      960     1100   
                                          VAR    BASINP    GEOM    SYMINP    ZMAT    AOBASIS   BASIS     P2S    ABASIS      S 
                                         1400     1410     1200     1210     1080     1600     1650     1300     1700     1380   
                                           T        V       H0       H01     AOSYM     SMH    MOLCAS    ERIS     OPER     JKOP   

              2       6        2.90       700     1000      520     2100     7360     7350   
                                         GEOM     BASIS   MCVARS     RHF    F12ABS    EF12   

 PROGRAMS   *        TOTAL   CCSD(T)    HF-SCF       INT
 CPU TIMES  *         5.12      3.82      0.27      0.89
 REAL TIME  *         7.50 SEC
 DISK USED  *        97.74 MB
 **********************************************************************************************************************************
 SETTING EE(1)          =      -138.25986528  AU                              


 Computing numerical gradient using default procedure for command CCSD(T)-F12

 *** Long output written to logfile /home/mdavis/f12eom_optimizer/tests/slurm/molpro_step.log ***


 Running default procedure: HF-SCF000  CCSD(T)-F12


 Generated   3 symmetrical displacements

 Numerical gradient for CCSD(T)-F12

 Total Energy          -138.25986528  Dipole moments:    0.000000    0.000000    0.000000

 Atom          dE/dx               dE/dy               dE/dz                  d2E/dx2             d2E/dy2             d2E/dz2
   1        -0.017280468         0.002058748         0.000000000            0.000000000         0.000000000         0.000000000
   2         0.024431463         0.049488075         0.000000000            0.000000000         0.000000000         0.000000000
   3        -0.007150995        -0.051546823         0.000000000            0.000000000         0.000000000         0.000000000

 Recomputing wavefunction at initial geometry


 **********************************************************************************************************************************
 DATASETS  * FILE   NREC   LENGTH (MB)   RECORD NAMES
              1      21       45.99       500      610      700      900      701      950      970     1000      129      960   
                                          VAR    BASINP    GEOM    SYMINP    GEOM     ZMAT    AOBASIS   BASIS     P2S    ABASIS    
                                         1100     1400     1410     1200     1210     1080     1600     1650     1300     1700   
                                           S        T        V       H0       H01     AOSYM     SMH    MOLCAS    ERIS     OPER   
                                         1380   
                                         JKOP   

              2       8        3.12       700     1000      520     2100     7360     7350      701     5600   
                                         GEOM     BASIS   MCVARS     RHF    F12ABS    EF12     GEOM     GINFO   

 PROGRAMS   *        TOTAL    FORCES    HF-SCF       INT   CCSD(T)    HF-SCF       INT
 CPU TIMES  *        41.93      3.83      0.04     32.94      3.82      0.27      0.89
 REAL TIME  *        58.58 SEC
 DISK USED  *       100.73 MB
 **********************************************************************************************************************************
 EE(1)            =     -138.259865281704 AU
 GRADX(1:3)       = [     -0.017280467687    0.024431463020   -0.007150995333] AU
 GRADY(1:3)       = [      0.002058747719    0.049488075195   -0.051546822914] AU
 GRADZ(1:3)       = [      0.000000000000    0.000000000000    0.000000000000] AU

 CCSD(T)-F12/cc-pVDZ-F12 energy=   -138.259865281704

     CCSD(T)-F12          HF-SCF     CCSD(T)-F12          HF-SCF
   -138.25986528   -137.79971519   -138.25986528   -137.79971519
 **********************************************************************************************************************************
 Molpro calculation terminated
