
 Primary working directories    : /scratch/mdavis/molpro_step_2022-08-17_17_30_37/molpro.tH5RHmGUuA
 Secondary working directories  : /scratch/mdavis/molpro_step_2022-08-17_17_30_37/molpro.tH5RHmGUuA
 Wavefunction directory         : /home/mdavis/f12eom_optimizer/tests/slurm/./
 Main file repository           : /scratch/mdavis/molpro_step_2022-08-17_17_30_37/molpro.tH5RHmGUuA/

 id        : olemiss

 Nodes     nprocs
 node17       1

 Using customized tuning parameters: mindgm=1; mindgv=20; mindgc=4; mindgr=1; noblas=0; minvec=7
 default implementation of scratch files=df  


 Variables initialized (945), CPU time= 0.01 sec
 ***,part of geometry opt run
 memory, 2000.0, m;
 gthresh,energy=1.d-12,zero=1.d-22,oneint=1.d-22,twoint=1.d-22;
 gthresh,optgrad=1.d-8,optstep=1.d-8;
 nocompress;
 bohr;
 geometry={
      3
 Fragment 1
     H  -1.5929535109   1.7235150494   0.0000000000
     C   0.4330371442   0.9870937045   0.0000000000
     F   0.2812691013  -1.3903289039   0.0000000000
      }
 
 set,charge=0
 set,spin=0
 basis=vdz-f12
 hf,maxit=500;wf,charge=0,spin=0;accu,20;
 ccsd(t)-f12,maxit=250;wf,charge=0,spin=0;orbital,IGNORE_ERROR;
 ee(1)=energy(2)
 forces,varsav
 SHOW[f18.12],ee(1)
 SHOW[f18.12],GRADX
 SHOW[f18.12],GRADY
 SHOW[f18.12],GRADZ
 Commands  initialized (802), CPU time= 0.00 sec, 659 directives.
 Default parameters read. Elapsed time= 0.09 sec

 Checking input...
 Passed
1


                                         ***  PROGRAM SYSTEM MOLPRO  ***
                                       Copyright, TTI GmbH Stuttgart, 2015
                                    Version 2020.1 linked Oct  6 2020 12:04:11


 **********************************************************************************************************************************
 LABEL *   part of geometry opt run                                                      
  64 bit serial version                                                                  DATE: 17-Aug-22          TIME: 17:30:37  
 **********************************************************************************************************************************

 SHA1:             8c27446f6450a7499e38f603e13c65f775101d37
 **********************************************************************************************************************************

 Memory per process:      2000 MW
 Total memory per node:   2000 MW

 GA preallocation disabled
 GA check disabled

 Variable memory set to 2000.0 MW


 THRESHOLDS:

 ZERO    =  1.00D-22  ONEINT  =  1.00D-22  TWOINT  =  1.00D-22  PREFAC  =  1.00D-14  XXXXXX  =  1.00D-09  EORDER  =  1.00D-04
 ENERGY  =  1.00D-12  ETEST   =  0.00D+00  EDENS   =  0.00D+00  THRDEDEF=  1.00D-06  GRADIENT=  1.00D-05  STEP    =  1.00D-03
 ORBITAL =  1.00D-05  CIVEC   =  1.00D-05  COEFF   =  1.00D-04  PRINTCI =  5.00D-02  PUNCHCI =  9.90D+01  OPTGRAD =  3.00D-04
 OPTENERG=  1.00D-06  OPTSTEP =  3.00D-04  THRGRAD =  1.00D-10  COMPRESS=  1.00D-11  VARMIN  =  1.00D-07  VARMAX  =  1.00D-03
 THRDOUB =  0.00D+00  THRDIV  =  1.00D-05  THRRED  =  1.00D-07  THRPSP  =  1.00D+00  THRDC   =  1.00D-10  THRCS   =  1.00D-10
 THRNRM  =  1.00D-08  THREQ   =  0.00D+00  THRDE   =  1.00D+00  THRREF  =  1.00D-05  SPARFAC =  1.00D+00  THRDLP  =  1.00D-07
 THRDIA  =  1.00D-10  THRDLS  =  1.00D-07  THRGPS  =  0.00D+00  THRKEX  =  0.00D+00  THRDIS  =  2.00D-01  THRVAR  =  1.00D-10
 THRLOC  =  1.00D-06  THRGAP  =  1.00D-06  THRLOCT = -1.00D+00  THRGAPT = -1.00D+00  THRORB  =  1.00D-06  THRMLTP =  0.00D+00
 THRCPQCI=  1.00D-10  KEXTA   =  0.00D+00  THRCOARS=  0.00D+00  SYMTOL  =  1.00D-06  GRADTOL =  1.00D-06  THROVL  =  1.00D-08
 THRORTH =  1.00D-08  GRID    =  1.00D-06  GRIDMAX =  1.00D-03  DTMAX   =  0.00D+00  THROCCDE=  1.00D-01  THROCCDE=  1.00D-01
 THRPRINT=  2.50D-01


 THRESHOLDS:

 ZERO    =  1.00D-22  ONEINT  =  1.00D-22  TWOINT  =  1.00D-22  PREFAC  =  1.00D-14  XXXXXX  =  1.00D-09  EORDER  =  1.00D-04
 ENERGY  =  1.00D-12  ETEST   =  0.00D+00  EDENS   =  0.00D+00  THRDEDEF=  1.00D-06  GRADIENT=  1.00D-05  STEP    =  1.00D-03
 ORBITAL =  1.00D-05  CIVEC   =  1.00D-05  COEFF   =  1.00D-04  PRINTCI =  5.00D-02  PUNCHCI =  9.90D+01  OPTGRAD =  1.00D-08
 OPTENERG=  1.00D-06  OPTSTEP =  1.00D-08  THRGRAD =  1.00D-10  COMPRESS=  1.00D-11  VARMIN  =  1.00D-07  VARMAX  =  1.00D-03
 THRDOUB =  0.00D+00  THRDIV  =  1.00D-05  THRRED  =  1.00D-07  THRPSP  =  1.00D+00  THRDC   =  1.00D-10  THRCS   =  1.00D-10
 THRNRM  =  1.00D-08  THREQ   =  0.00D+00  THRDE   =  1.00D+00  THRREF  =  1.00D-05  SPARFAC =  1.00D+00  THRDLP  =  1.00D-07
 THRDIA  =  1.00D-10  THRDLS  =  1.00D-07  THRGPS  =  0.00D+00  THRKEX  =  0.00D+00  THRDIS  =  2.00D-01  THRVAR  =  1.00D-10
 THRLOC  =  1.00D-06  THRGAP  =  1.00D-06  THRLOCT = -1.00D+00  THRGAPT = -1.00D+00  THRORB  =  1.00D-06  THRMLTP =  0.00D+00
 THRCPQCI=  1.00D-10  KEXTA   =  0.00D+00  THRCOARS=  0.00D+00  SYMTOL  =  1.00D-06  GRADTOL =  1.00D-06  THROVL  =  1.00D-08
 THRORTH =  1.00D-08  GRID    =  1.00D-06  GRIDMAX =  1.00D-03  DTMAX   =  0.00D+00  THROCCDE=  1.00D-01  THROCCDE=  1.00D-01
 THRPRINT=  2.50D-01


 Input parameters for SORTINT:

 COMPRESS =    0.000000
 C_FINAL  =    1.000000
 DEBUG    =   -1.000000
 C_SORT1  =    0.000000
 C_SEWARD =    0.000000
 THRESH   =    0.000000
 IO       =  molpro                                                                                                                          
 SPRI     =    0.000000
 ZUNIT=BOHR


 Geometry recognized as XYZ

 SETTING CHARGE         =     0.00000000D+00                                  
 SETTING SPIN           =     0.00000000D+00                                  
 SETTING BASIS          =    VDZ-F12


 Recomputing integrals since basis changed


 Using spherical harmonics

 Library entry H      S cc-pVDZ-F12          selected for orbital group  1
 Library entry H      P cc-pVDZ-F12          selected for orbital group  1
 Library entry C      S cc-pVDZ-F12          selected for orbital group  2
 Library entry C      P cc-pVDZ-F12          selected for orbital group  2
 Library entry C      D cc-pVDZ-F12          selected for orbital group  2
 Library entry F      S cc-pVDZ-F12          selected for orbital group  3
 Library entry F      P cc-pVDZ-F12          selected for orbital group  3
 Library entry F      D cc-pVDZ-F12          selected for orbital group  3


 PROGRAM * SEWARD (Integral evaluation for generally contracted gaussian basis sets)     Author: Roland Lindh, 1990

 Geometry written to block  1 of record 700


 Point group  Cs  



 ATOMIC COORDINATES

 NR  ATOM    CHARGE       X              Y              Z

   1  H       1.00   -1.592953511    1.723515049    0.000000000
   2  C       6.00    0.433037144    0.987093705    0.000000000
   3  F       9.00    0.281269101   -1.390328904    0.000000000

 Bond lengths in Bohr (Angstrom)

 1-2  2.155679599  2-3  2.382261908
     ( 1.140736518)     ( 1.260638712)

 Bond angles

  1-2-3  106.32290296

 NUCLEAR CHARGE:                   16
 NUMBER OF PRIMITIVE AOS:          93
 NUMBER OF SYMMETRY AOS:           89
 NUMBER OF CONTRACTIONS:           69   (   49A'  +   20A"  )
 NUMBER OF INNER CORE ORBITALS:     0   (    0A'  +    0A"  )
 NUMBER OF OUTER CORE ORBITALS:     2   (    2A'  +    0A"  )
 NUMBER OF VALENCE ORBITALS:        9   (    7A'  +    2A"  )


 NUCLEAR REPULSION ENERGY   27.92722711

 Eigenvalues of metric

         1 0.146E-02 0.295E-02 0.323E-02 0.330E-02 0.413E-02 0.468E-02 0.470E-02 0.910E-02
         2 0.330E-02 0.468E-02 0.771E-01 0.925E-01 0.136E+00 0.167E+00 0.244E+00 0.382E+00


 Contracted 2-electron integrals neglected if value below      1.0D-22

        1426049. INTEGRALS WRITTEN OUT IN     349 BLOCKS ON RECORD 1290 OF FILE 1


 NUMBER OF SORTED TWO-ELECTRON INTEGRALS:    1544830.     BUFFER LENGTH:  32768
 NUMBER OF SEGMENTS:   1  SEGMENT LENGTH:    1544830      RECORD LENGTH: 524288

 Memory used in sort:       2.10 MW

 SORT1 READ     1426049. AND WROTE     1455925. INTEGRALS IN      5 RECORDS. CPU TIME:     0.03 SEC, REAL TIME:     0.04 SEC
 SORT2 READ     1455925. AND WROTE     1544830. INTEGRALS IN      1 RECORDS. CPU TIME:     0.06 SEC, REAL TIME:     0.06 SEC

 FILE SIZES:   FILE 1:    53.0 MBYTE,  FILE 4:    21.0 MBYTE,   TOTAL:     74.0 MBYTE

 OPERATOR DM      FOR CENTER  0  COORDINATES:    0.000000    0.000000    0.000000


 **********************************************************************************************************************************
 DATASETS  * FILE   NREC   LENGTH (MB)   RECORD NAMES
              1      19       42.18       500      610      700      900      950      970     1000      129      960     1100   
                                          VAR    BASINP    GEOM    SYMINP    ZMAT    AOBASIS   BASIS     P2S    ABASIS      S 
                                         1400     1410     1200     1210     1080     1600     1650     1300     1700   
                                           T        V       H0       H01     AOSYM     SMH    MOLCAS    ERIS     OPER   

 PROGRAMS   *        TOTAL       INT
 CPU TIMES  *         1.05      0.92
 REAL TIME  *         2.64 SEC
 DISK USED  *        74.32 MB
 **********************************************************************************************************************************


 PROGRAM * RHF-SCF (CLOSED SHELL)       Authors: W. Meyer, H.-J. Werner


 NUMBER OF ELECTRONS:       8+    8-
 CONVERGENCE THRESHOLDS:    1.00E-10 (Density)    1.00E-13 (Energy)
 MAX. NUMBER OF ITERATIONS:      500
 INTERPOLATION TYPE:            DIIS
 INTERPOLATION STEPS:              2 (START)      1 (STEP)
 LEVEL SHIFTS:                  0.00 (CLOSED)  0.00 (OPEN) 



 Orbital guess generated from atomic densities. Full valence occupancy:    9   2

 Molecular orbital dump at record        2100.2

 Initial occupancy:   7   1

 ITERATION    DDIFF          GRAD             ENERGY        2-EL.EN.            DIPOLE MOMENTS         DIIS   ORB.
    1      0.000D+00      0.000D+00      -137.78060485    158.198531   -0.69041   -0.12247    0.00000    0    start
    2      0.000D+00      0.995D-02      -137.80550692    159.458727   -0.65330   -0.12151    0.00000    1    diag
    3      0.135D-01      0.331D-02      -137.80799310    159.603563   -0.62543   -0.02439    0.00000    2    diag
    4      0.362D-02      0.104D-02      -137.80826611    159.431425   -0.62281   -0.02715    0.00000    3    diag
    5      0.106D-02      0.321D-03      -137.80831202    159.501715   -0.62232   -0.01590    0.00000    4    diag
    6      0.390D-03      0.737D-04      -137.80831677    159.501685   -0.62164   -0.01353    0.00000    5    diag
    7      0.138D-03      0.235D-04      -137.80831723    159.502289   -0.62171   -0.01326    0.00000    6    diag
    8      0.511D-04      0.495D-05      -137.80831725    159.502118   -0.62170   -0.01332    0.00000    7    diag
    9      0.106D-04      0.891D-06      -137.80831725    159.502139   -0.62172   -0.01334    0.00000    8    diag
   10      0.205D-05      0.183D-06      -137.80831725    159.502137   -0.62172   -0.01335    0.00000    9    orth
   11      0.510D-06      0.464D-07      -137.80831725    159.502135   -0.62172   -0.01335    0.00000    9    diag
   12      0.131D-06      0.989D-08      -137.80831725    159.502135   -0.62172   -0.01335    0.00000    9    diag
   13      0.219D-07      0.222D-08      -137.80831725    159.502135   -0.62172   -0.01335    0.00000    9    diag
   14      0.480D-08      0.571D-09      -137.80831725    159.502135   -0.62172   -0.01335    0.00000    9    diag
   15      0.133D-08      0.121D-09      -137.80831725    159.502135   -0.62172   -0.01335    0.00000    9    diag
   16      0.169D-09      0.390D-10      -137.80831725    159.502135   -0.62172   -0.01335    0.00000    9    diag
   17      0.658D-10      0.703D-11      -137.80831725    159.502135   -0.62172   -0.01335    0.00000    9    diag
   18      0.178D-10      0.154D-11      -137.80831725    159.502135   -0.62172   -0.01335    0.00000    9    diag
   19      0.354D-11      0.418D-12      -137.80831725    159.502135   -0.62172   -0.01335    0.00000    9    fixocc
   20      0.123D-11      0.926D-13      -137.80831725    159.502135   -0.62172   -0.01335    0.00000    9    orth
   21      0.317D-12      0.374D-13      -137.80831725    159.502135   -0.62172   -0.01335    0.00000    0    orth

 Final occupancy:   7   1

 !RHF STATE  1.1 Energy              -137.808317250922
 Nuclear energy                        27.92722711
 One-electron energy                 -245.48661191
 Two-electron energy                   79.75106755
 Virial quotient                       -1.00032356
 !RHF STATE  1.1 Dipole moment         -0.62172353    -0.01335344     0.00000000
 Dipole moment /Debye                  -1.58016010    -0.03393884     0.00000000

 Orbital energies:

         1.1          2.1          3.1          4.1          5.1          6.1          7.1          8.1          9.1
    -26.374975   -11.365221    -1.716000    -0.940818    -0.785702    -0.677693    -0.395690     0.070338     0.082719

         1.2          2.2          3.2
     -0.736139     0.048551     0.129150


 HOMO      7.1    -0.395690 =     -10.7673eV
 LUMO      2.2     0.048551 =       1.3212eV
 LUMO-HOMO         0.444242 =      12.0884eV


 **********************************************************************************************************************************
 DATASETS  * FILE   NREC   LENGTH (MB)   RECORD NAMES
              1      19       42.18       500      610      700      900      950      970     1000      129      960     1100   
                                          VAR    BASINP    GEOM    SYMINP    ZMAT    AOBASIS   BASIS     P2S    ABASIS      S 
                                         1400     1410     1200     1210     1080     1600     1650     1300     1700   
                                           T        V       H0       H01     AOSYM     SMH    MOLCAS    ERIS     OPER   

              2       4        2.84       700     1000      520     2100   
                                         GEOM     BASIS   MCVARS     RHF  

 PROGRAMS   *        TOTAL    HF-SCF       INT
 CPU TIMES  *         1.37      0.32      0.92
 REAL TIME  *         3.02 SEC
 DISK USED  *        74.32 MB
 **********************************************************************************************************************************


 PROGRAM * CCSD (Closed-shell coupled cluster)     Authors: C. Hampel, H.-J. Werner, 1991, M. Deegan, P.J. Knowles, 1992

                                  CCSD-F12 implementation by  H.-J. Werner, 2007

                   Density fitting integral evaluation by F.R. Manby, 2003,2007, G. Knizia, 2010


 Basis set AUG-CC-PVDZ/JKFIT generated.  Number of basis functions:   204 
 Basis set CC-PVDZ-F12/OPTRI generated.  Number of basis functions:   154 
 Basis set AUG-CC-PVDZ/MP2FIT generated. Number of basis functions:   167 

 Convergence thresholds:  THRVAR = 1.00D-16  THRDEN = 1.00D-12

 CCSD(T)     terms to be evaluated (factor= 1.000)


 Number of core orbitals:           2 (   2   0 )
 Number of closed-shell orbitals:   6 (   5   1 )
 Number of external orbitals:      61 (  42  19 )

 Molecular orbitals read from record     2100.2  Type=RHF/CANONICAL (state 1.1)

 MP2-F12 correlation treatment (H.-J. Werner, 2006)
 ==================================================

 Using MP2-F12 with ansatz 3C(FIX)

 Using projected zeroth-order Hamiltonian (+Z)

 FOCKRIB=T FOCKRIC=T FOCKRIP=T CABSP=T CABSA=T CABSK=T CABSF=T GBC=F EBC=F DMAT=T NOFIK=T NOPAO=1 SOLVE=-1  USEPAO=0
 EXCH_A= T EXCH_B= F EXCH_C= F EXCH_P= F

 Geminal basis:    OPTFULL  GEM_TYPE=SLATER  BETA=1.0  NGEM=6

 Optimizing Gaussian exponents for each gem_beta

 Geminal optimization for beta= 1.0000
 Weight function:   m=0, omega= 1.4646

 Augmented Hessian optimization of geminal fit. Trust ratio= 0.40000
 Convergence reached after   2 iterations. Final gradient= 8.66D-16, Step= 4.23D-06, Delta= 1.28D-09

 Alpha:                 0.19532     0.81920     2.85917     9.50073    35.69989   197.79328
 Coeff:                 0.27070     0.30552     0.18297     0.10986     0.06810     0.04224


 Symmetry turned off. Reference energy:       -137.808317250922

 All pairs explicitly correlated. Number of r12-pairs:           21

 Excluding core orbitals from MO domains

 AO(A)-basis ORBITAL           loaded. Number of functions:      69
 RI(R)-basis CC-PVDZ-F12/OPTRI loaded. Number of functions:     154
 DF-basis AUG-CC-PVDZ/JKFIT    loaded. Number of functions:     204

 Screening thresholds:   THRAO=  1.00D-10  THRMO=  1.00D-10  THRPROD=  1.00D-10
                         THRSW=  1.00D-07  THROV=  1.00D-12  THRAOF12= 1.00D-08

 CPU time for Fock operators                      0.88 sec

 Construction of ABS:
 Smallest eigenvalue of S          3.64E-03  (threshold= 1.00E-08)
 Ratio eigmin/eigmax               7.64E-04  (threshold= 1.00E-09)
 Smallest eigenvalue of S kept     3.64E-03  (threshold= 3.64E-03, 0 functions deleted, 154 kept)

 Construction of CABS:
 Smallest eigenvalue of S          9.64E-06  (threshold= 1.00E-08)
 Ratio eigmin/eigmax               9.64E-06  (threshold= 1.00E-09)
 Smallest eigenvalue of S kept     9.64E-06  (threshold= 9.64E-06, 0 functions deleted, 154 kept)

 CPU time for CABS singles                        0.01 sec

 CABS-singles contribution of  -0.00665531 patched into reference energy.
 New reference energy        -137.81497256

 AO(A)-basis ORBITAL           loaded. Number of functions:      69
 RI(R)-basis CC-PVDZ-F12/OPTRI loaded. Number of functions:     154
 DF-basis AUG-CC-PVDZ/MP2FIT   loaded. Number of functions:     167

 Screening thresholds:   THRAO=  1.00D-10  THRMO=  1.00D-10  THRPROD=  1.00D-10
                         THRSW=  1.00D-07  THROV=  1.00D-12  THRAOF12= 1.00D-08

 CPU time for 3-index integral evaluation         0.38 sec
 CPU time for first  half transformation          0.03 sec ( 5065.5 MFLOP/sec)
 CPU time for second half transformation          0.01 sec (  774.3 MFLOP/sec)
 CPU time for fitting                             0.01 sec ( 8266.3 MFLOP/sec)
 CPU time for assembly                            0.01 sec (77487.8 MFLOP/sec)
 CPU time for tranop_f12                          0.05 sec (20899.9 MFLOP/sec)
 CPU time for f12 integrals (total)               1.17 sec, Elapsed time:      1.26 sec
 CPU time for f12 matrices (total)                0.01 sec, Elapsed time:      0.02 sec

 Diagonal F12 approximation with fixed coefficients:  TSING= 0.500,  TTRIP= 0.250 (scaled by -1/beta)

 DF-MP2-F12 energy corrections:
 ==============================
 Approx.                                    Singlet             Triplet             Total
 DF-MP2-F12/3*C(DX,FIX)                -0.078328103175     -0.016375370777     -0.094703473952
 DF-MP2-F12/3*C(FIX)                   -0.068997043997     -0.015379604416     -0.084376648413
 DF-MP2-F12/3C(FIX)                    -0.069693073188     -0.016184451544     -0.085877524733

 DF-MP2-F12 correlation energies:
 ================================
 Approx.                                    Singlet             Triplet             Ecorr            Total Energy
 DF-MP2                                -0.222604933073     -0.131329406063     -0.353934339136   -138.168906895255
 DF-MP2-F12/3*C(DX,FIX)                -0.300933036247     -0.147704776840     -0.448637813087   -138.263610369207
 DF-MP2-F12/3*C(FIX)                   -0.291601977070     -0.146709010479     -0.438310987548   -138.253283543668
 DF-MP2-F12/3C(FIX)                    -0.292298006261     -0.147513857607     -0.439811863868   -138.254784419988

 SCS-DF-MP2 energies (F_SING= 1.20000  F_TRIP= 0.62222  F_PARALLEL= 0.33333):
 ============================================================================
 SCS-DF-MP2                            -0.348841994571   -138.163814550690
 SCS-DF-MP2-F12/3*C(DX,FIX)            -0.453024837975   -138.267997394095
 SCS-DF-MP2-F12/3*C(FIX)               -0.441207979004   -138.256180535123
 SCS-DF-MP2-F12/3C(FIX)                -0.442544007802   -138.257516563922

 Symmetry restored.
 Symmetry transformation completed.

 Number of N-1 electron functions:               6
 Number of N-2 electron functions:              21
 Number of singly external CSFs:               229
 Number of doubly external CSFs:             35788
 Total number of CSFs:                       36018

 Length of J-op  integral file:              15.24 MB
 Length of K-op  integral file:              18.55 MB
 Length of 3-ext integral record:             0.00 MB

 Memory could be reduced to 1.16 Mwords without degradation in triples

 Integral transformation finished. Total CPU:   0.03 sec, npass=  1  Memory used:   0.52 MW

 Reference energy:                   -137.81497256

 Adding F12 terms to K(Cij), methodcc=6,  factor= 1.0

 ITER.      SQ.NORM     CORR.ENERGY   TOTAL ENERGY   ENERGY CHANGE        DEN1      VAR(S)    VAR(P)  DIIS     TIME  TIME/IT
   1      1.09144648    -0.36060772  -138.17558028    -0.00657967     0.00462850  0.24D-02  0.21D-02  1  1     2.20     0.05
   2      1.10064333    -0.36136036  -138.17633292    -0.00075264    -0.00886522  0.75D-04  0.49D-03  2  2     2.25     0.05
   3      1.10674601    -0.36211250  -138.17708506    -0.00075214    -0.00244377  0.78D-04  0.77D-04  3  3     2.30     0.05
   4      1.11037239    -0.36229188  -138.17726444    -0.00017938    -0.00125471  0.59D-05  0.20D-04  4  4     2.35     0.05
   5      1.11224048    -0.36233644  -138.17730900    -0.00004456    -0.00032125  0.67D-06  0.38D-05  5  5     2.40     0.05
   6      1.11294072    -0.36233321  -138.17730576     0.00000323    -0.00004914  0.13D-06  0.60D-06  6  6     2.45     0.05
   7      1.11308946    -0.36233788  -138.17731043    -0.00000467    -0.00001325  0.66D-07  0.78D-07  6  2     2.50     0.05
   8      1.11309654    -0.36233929  -138.17731185    -0.00000142     0.00000540  0.83D-08  0.12D-07  6  1     2.55     0.06
   9      1.11309871    -0.36233999  -138.17731254    -0.00000069     0.00000026  0.25D-08  0.15D-08  6  4     2.60     0.06
  10      1.11309856    -0.36234032  -138.17731288    -0.00000033     0.00000052  0.27D-09  0.22D-09  6  3     2.65     0.06
  11      1.11309692    -0.36234032  -138.17731287     0.00000001     0.00000016  0.57D-10  0.27D-10  6  6     2.70     0.06
  12      1.11309701    -0.36234035  -138.17731291    -0.00000004     0.00000011  0.66D-11  0.40D-11  6  5     2.75     0.06
  13      1.11309682    -0.36234036  -138.17731291    -0.00000001     0.00000004  0.16D-11  0.87D-12  6  2     2.79     0.06
  14      1.11309669    -0.36234036  -138.17731292    -0.00000001     0.00000003  0.17D-12  0.24D-12  6  1     2.85     0.06
  15      1.11309656    -0.36234037  -138.17731292    -0.00000000     0.00000001  0.18D-13  0.53D-13  6  4     2.90     0.06
  16      1.11309650    -0.36234037  -138.17731292    -0.00000000     0.00000001  0.31D-14  0.13D-13  6  3     2.95     0.06
  17      1.11309647    -0.36234037  -138.17731292    -0.00000000     0.00000001  0.22D-14  0.20D-14  6  6     3.00     0.06
  18      1.11309646    -0.36234037  -138.17731292     0.00000000     0.00000000  0.34D-15  0.26D-15  6  5     3.04     0.06
  19      1.11309646    -0.36234037  -138.17731292     0.00000000    -0.00000000  0.12D-15  0.46D-16  6  2     3.09     0.06
  20      1.11309646    -0.36234037  -138.17731292     0.00000000    -0.00000000  0.11D-16  0.91D-17  6  1     3.14     0.06
  21      1.11309646    -0.36234037  -138.17731292     0.00000000    -0.00000000  0.38D-17  0.17D-17  6  4     3.19     0.06
  22      1.11309646    -0.36234037  -138.17731292     0.00000000    -0.00000000  0.71D-18  0.35D-18  6  3     3.25     0.06
  23      1.11309646    -0.36234037  -138.17731292     0.00000000    -0.00000000  0.15D-18  0.91D-19  6  6     3.29     0.06
  24      1.11309646    -0.36234037  -138.17731292     0.00000000     0.00000000  0.22D-19  0.33D-19  6  5     3.34     0.06
  25      1.11309646    -0.36234037  -138.17731292     0.00000000    -0.00000000  0.31D-20  0.12D-19  6  2     3.39     0.06

 Norm of t1 vector:      0.07540408      S-energy:     0.00000000      T1 diagnostic:  0.01539179
                                                                       D1 diagnostic:  0.04451668

 Adding energy correction from Wij-K(Fij), methodcc=6  factor= 1.0

  CCSD correlation energy              -0.362340365414
  MP2-F12 correction (uncoupled)       -0.080986340898
  C*T doubles correction               -0.002742194965
  f12b correction                       0.010109501969


 Total CPU time for triples:      0.26 sec


 RESULTS
 =======

  Reference energy                   -137.808317250922
  F12 singles correction               -0.006655305197

 F12 singles corrections added to reference energy

  New reference energy               -137.814972556120

  F12a singlet correction              -0.068277906093
  F12a triplet correction              -0.015450629771
  F12a total correction                -0.083728535864

 F12a corrections for ansatz F12/3C(FIX) added to CCSD energy

  CCSD-F12a singlet pair energy        -0.312140704003
  CCSD-F12a triplet pair energy        -0.133928197276
  CCSD-F12a correlation energy         -0.446068901278

  Triples (T) contribution             -0.012121287785
  Total correlation energy             -0.458190189063

  CCSD-F12a total energy             -138.261041457398
  CCSD[T]-F12a energy                -138.274141072873
  CCSD-T-F12a energy                 -138.272830200233
 !CCSD(T)-F12a total energy          -138.273162745183

 F12b corrections for ansatz F12/3C(FIX) added to CCSD(T)-F12a energy

  CCSD-F12b singlet pair energy        -0.303004927476
  CCSD-F12b triplet pair energy        -0.132954471835
  CCSD-F12b correlation energy         -0.435959399309

  Triples (T) contribution             -0.012121287785
  Total correlation energy             -0.448080687094

  CCSD-F12b total energy             -138.250931955429
  CCSD[T]-F12b energy                -138.264031570904
  CCSD-T-F12b energy                 -138.262720698264
 !CCSD(T)-F12b total energy          -138.263053243214

 Timing summary (sec):

 STEP                 CPU(USER)    SYS     CPU(TOT)    WALL
 Transformation          0.03      0.01      0.04      0.05
 CCSD iterations         1.27      0.14      1.41      1.42
 Triples                 0.26      0.00      0.26      0.27
 MP2-F12                 2.09      0.15      2.24      2.53
 F12b energy             0.03      0.01      0.04      0.03

 Program statistics:

 Available memory in ccsd:              1999999744
 Min. memory needed in ccsd:                136839
 Max. memory used in ccsd:                  163083
 Max. memory used in cckext:                208330 (26 integral passes)



 **********************************************************************************************************************************
 DATASETS  * FILE   NREC   LENGTH (MB)   RECORD NAMES
              1      20       45.77       500      610      700      900      950      970     1000      129      960     1100   
                                          VAR    BASINP    GEOM    SYMINP    ZMAT    AOBASIS   BASIS     P2S    ABASIS      S 
                                         1400     1410     1200     1210     1080     1600     1650     1300     1700     1380   
                                           T        V       H0       H01     AOSYM     SMH    MOLCAS    ERIS     OPER     JKOP   

              2       6        2.90       700     1000      520     2100     7360     7350   
                                         GEOM     BASIS   MCVARS     RHF    F12ABS    EF12   

 PROGRAMS   *        TOTAL   CCSD(T)    HF-SCF       INT
 CPU TIMES  *         5.07      3.70      0.32      0.92
 REAL TIME  *         7.36 SEC
 DISK USED  *        97.74 MB
 **********************************************************************************************************************************
 SETTING EE(1)          =      -138.26305324  AU                              


 Computing numerical gradient using default procedure for command CCSD(T)-F12

 *** Long output written to logfile /home/mdavis/f12eom_optimizer/tests/slurm/molpro_step.log ***


 Running default procedure: HF-SCF000  CCSD(T)-F12


 Generated   3 symmetrical displacements

 Numerical gradient for CCSD(T)-F12

 Total Energy          -138.26305324  Dipole moments:    0.000000    0.000000    0.000000

 Atom          dE/dx               dE/dy               dE/dz                  d2E/dx2             d2E/dy2             d2E/dz2
   1        -0.005359202         0.009408296         0.000000000            0.000000000         0.000000000         0.000000000
   2        -0.003541525        -0.049247384         0.000000000            0.000000000         0.000000000         0.000000000
   3         0.008900727         0.039839088         0.000000000            0.000000000         0.000000000         0.000000000

 Recomputing wavefunction at initial geometry


 **********************************************************************************************************************************
 DATASETS  * FILE   NREC   LENGTH (MB)   RECORD NAMES
              1      21       45.99       500      610      700      900      701      950      970     1000      129      960   
                                          VAR    BASINP    GEOM    SYMINP    GEOM     ZMAT    AOBASIS   BASIS     P2S    ABASIS    
                                         1100     1400     1410     1200     1210     1080     1600     1650     1300     1700   
                                           S        T        V       H0       H01     AOSYM     SMH    MOLCAS    ERIS     OPER   
                                         1380   
                                         JKOP   

              2       8        3.12       700     1000      520     2100     7360     7350      701     5600   
                                         GEOM     BASIS   MCVARS     RHF    F12ABS    EF12     GEOM     GINFO   

 PROGRAMS   *        TOTAL    FORCES    HF-SCF       INT   CCSD(T)    HF-SCF       INT
 CPU TIMES  *        40.33      3.74      0.05     31.46      3.70      0.32      0.92
 REAL TIME  *        50.18 SEC
 DISK USED  *       100.73 MB
 **********************************************************************************************************************************
 EE(1)            =     -138.263053243214 AU
 GRADX(1:3)       = [     -0.005359202139   -0.003541524933    0.008900727072] AU
 GRADY(1:3)       = [      0.009408296218   -0.049247384108    0.039839087890] AU
 GRADZ(1:3)       = [      0.000000000000    0.000000000000    0.000000000000] AU

 CCSD(T)-F12/cc-pVDZ-F12 energy=   -138.263053243214

     CCSD(T)-F12          HF-SCF     CCSD(T)-F12          HF-SCF
   -138.26305324   -137.80831725   -138.26305324   -137.80831725
 **********************************************************************************************************************************
 Molpro calculation terminated
