
 Primary working directories    : /scratch/mdavis/molpro_step_2022-08-17_17_42_50/molpro.lHvlahmFyx
 Secondary working directories  : /scratch/mdavis/molpro_step_2022-08-17_17_42_50/molpro.lHvlahmFyx
 Wavefunction directory         : /home/mdavis/f12eom_optimizer/tests/slurm/./
 Main file repository           : /scratch/mdavis/molpro_step_2022-08-17_17_42_50/molpro.lHvlahmFyx/

 id        : olemiss

 Nodes     nprocs
 node17       1

 Using customized tuning parameters: mindgm=1; mindgv=20; mindgc=4; mindgr=1; noblas=0; minvec=7
 default implementation of scratch files=df  


 Variables initialized (945), CPU time= 0.01 sec
 ***,part of geometry opt run
 memory, 2000.0, m;
 gthresh,energy=1.d-12,zero=1.d-22,oneint=1.d-22,twoint=1.d-22;
 gthresh,optgrad=1.d-8,optstep=1.d-8;
 nocompress;
 bohr;
 geometry={
      3
 Fragment 1
     H  -1.6041796775   1.6840329125   0.0000000000
     C   0.4878692495   1.1261068051   0.0000000000
     F   0.2376631626  -1.4898598677   0.0000000000
      }
 
 set,charge=0
 set,spin=0
 basis=vdz-f12
 hf,maxit=500;wf,charge=0,spin=0;accu,20;
 ccsd(t)-f12,maxit=250;wf,charge=0,spin=0;orbital,IGNORE_ERROR;
 ee(1)=energy(2)
 forces,varsav
 SHOW[f18.12],ee(1)
 SHOW[f18.12],GRADX
 SHOW[f18.12],GRADY
 SHOW[f18.12],GRADZ
 Commands  initialized (802), CPU time= 0.01 sec, 659 directives.
 Default parameters read. Elapsed time= 0.10 sec

 Checking input...
 Passed
1


                                         ***  PROGRAM SYSTEM MOLPRO  ***
                                       Copyright, TTI GmbH Stuttgart, 2015
                                    Version 2020.1 linked Oct  6 2020 12:04:11


 **********************************************************************************************************************************
 LABEL *   part of geometry opt run                                                      
  64 bit serial version                                                                  DATE: 17-Aug-22          TIME: 17:42:50  
 **********************************************************************************************************************************

 SHA1:             8c27446f6450a7499e38f603e13c65f775101d37
 **********************************************************************************************************************************

 Memory per process:      2000 MW
 Total memory per node:   2000 MW

 GA preallocation disabled
 GA check disabled

 Variable memory set to 2000.0 MW


 THRESHOLDS:

 ZERO    =  1.00D-22  ONEINT  =  1.00D-22  TWOINT  =  1.00D-22  PREFAC  =  1.00D-14  XXXXXX  =  1.00D-09  EORDER  =  1.00D-04
 ENERGY  =  1.00D-12  ETEST   =  0.00D+00  EDENS   =  0.00D+00  THRDEDEF=  1.00D-06  GRADIENT=  1.00D-05  STEP    =  1.00D-03
 ORBITAL =  1.00D-05  CIVEC   =  1.00D-05  COEFF   =  1.00D-04  PRINTCI =  5.00D-02  PUNCHCI =  9.90D+01  OPTGRAD =  3.00D-04
 OPTENERG=  1.00D-06  OPTSTEP =  3.00D-04  THRGRAD =  1.00D-10  COMPRESS=  1.00D-11  VARMIN  =  1.00D-07  VARMAX  =  1.00D-03
 THRDOUB =  0.00D+00  THRDIV  =  1.00D-05  THRRED  =  1.00D-07  THRPSP  =  1.00D+00  THRDC   =  1.00D-10  THRCS   =  1.00D-10
 THRNRM  =  1.00D-08  THREQ   =  0.00D+00  THRDE   =  1.00D+00  THRREF  =  1.00D-05  SPARFAC =  1.00D+00  THRDLP  =  1.00D-07
 THRDIA  =  1.00D-10  THRDLS  =  1.00D-07  THRGPS  =  0.00D+00  THRKEX  =  0.00D+00  THRDIS  =  2.00D-01  THRVAR  =  1.00D-10
 THRLOC  =  1.00D-06  THRGAP  =  1.00D-06  THRLOCT = -1.00D+00  THRGAPT = -1.00D+00  THRORB  =  1.00D-06  THRMLTP =  0.00D+00
 THRCPQCI=  1.00D-10  KEXTA   =  0.00D+00  THRCOARS=  0.00D+00  SYMTOL  =  1.00D-06  GRADTOL =  1.00D-06  THROVL  =  1.00D-08
 THRORTH =  1.00D-08  GRID    =  1.00D-06  GRIDMAX =  1.00D-03  DTMAX   =  0.00D+00  THROCCDE=  1.00D-01  THROCCDE=  1.00D-01
 THRPRINT=  2.50D-01


 THRESHOLDS:

 ZERO    =  1.00D-22  ONEINT  =  1.00D-22  TWOINT  =  1.00D-22  PREFAC  =  1.00D-14  XXXXXX  =  1.00D-09  EORDER  =  1.00D-04
 ENERGY  =  1.00D-12  ETEST   =  0.00D+00  EDENS   =  0.00D+00  THRDEDEF=  1.00D-06  GRADIENT=  1.00D-05  STEP    =  1.00D-03
 ORBITAL =  1.00D-05  CIVEC   =  1.00D-05  COEFF   =  1.00D-04  PRINTCI =  5.00D-02  PUNCHCI =  9.90D+01  OPTGRAD =  1.00D-08
 OPTENERG=  1.00D-06  OPTSTEP =  1.00D-08  THRGRAD =  1.00D-10  COMPRESS=  1.00D-11  VARMIN  =  1.00D-07  VARMAX  =  1.00D-03
 THRDOUB =  0.00D+00  THRDIV  =  1.00D-05  THRRED  =  1.00D-07  THRPSP  =  1.00D+00  THRDC   =  1.00D-10  THRCS   =  1.00D-10
 THRNRM  =  1.00D-08  THREQ   =  0.00D+00  THRDE   =  1.00D+00  THRREF  =  1.00D-05  SPARFAC =  1.00D+00  THRDLP  =  1.00D-07
 THRDIA  =  1.00D-10  THRDLS  =  1.00D-07  THRGPS  =  0.00D+00  THRKEX  =  0.00D+00  THRDIS  =  2.00D-01  THRVAR  =  1.00D-10
 THRLOC  =  1.00D-06  THRGAP  =  1.00D-06  THRLOCT = -1.00D+00  THRGAPT = -1.00D+00  THRORB  =  1.00D-06  THRMLTP =  0.00D+00
 THRCPQCI=  1.00D-10  KEXTA   =  0.00D+00  THRCOARS=  0.00D+00  SYMTOL  =  1.00D-06  GRADTOL =  1.00D-06  THROVL  =  1.00D-08
 THRORTH =  1.00D-08  GRID    =  1.00D-06  GRIDMAX =  1.00D-03  DTMAX   =  0.00D+00  THROCCDE=  1.00D-01  THROCCDE=  1.00D-01
 THRPRINT=  2.50D-01


 Input parameters for SORTINT:

 COMPRESS =    0.000000
 C_FINAL  =    1.000000
 DEBUG    =   -1.000000
 C_SORT1  =    0.000000
 C_SEWARD =    0.000000
 THRESH   =    0.000000
 IO       =  molpro                                                                                                                          
 SPRI     =    0.000000
 ZUNIT=BOHR


 Geometry recognized as XYZ

 SETTING CHARGE         =     0.00000000D+00                                  
 SETTING SPIN           =     0.00000000D+00                                  
 SETTING BASIS          =    VDZ-F12


 Recomputing integrals since basis changed


 Using spherical harmonics

 Library entry H      S cc-pVDZ-F12          selected for orbital group  1
 Library entry H      P cc-pVDZ-F12          selected for orbital group  1
 Library entry C      S cc-pVDZ-F12          selected for orbital group  2
 Library entry C      P cc-pVDZ-F12          selected for orbital group  2
 Library entry C      D cc-pVDZ-F12          selected for orbital group  2
 Library entry F      S cc-pVDZ-F12          selected for orbital group  3
 Library entry F      P cc-pVDZ-F12          selected for orbital group  3
 Library entry F      D cc-pVDZ-F12          selected for orbital group  3


 PROGRAM * SEWARD (Integral evaluation for generally contracted gaussian basis sets)     Author: Roland Lindh, 1990

 Geometry written to block  1 of record 700


 Point group  Cs  



 ATOMIC COORDINATES

 NR  ATOM    CHARGE       X              Y              Z

   1  H       1.00   -1.604179677    1.684032912    0.000000000
   2  C       6.00    0.487869249    1.126106805    0.000000000
   3  F       9.00    0.237663163   -1.489859868    0.000000000

 Bond lengths in Bohr (Angstrom)

 1-2  2.165167489  2-3  2.627905006
     ( 1.145757293)     ( 1.390627441)

 Bond angles

  1-2-3   99.46912549

 NUCLEAR CHARGE:                   16
 NUMBER OF PRIMITIVE AOS:          93
 NUMBER OF SYMMETRY AOS:           89
 NUMBER OF CONTRACTIONS:           69   (   49A'  +   20A"  )
 NUMBER OF INNER CORE ORBITALS:     0   (    0A'  +    0A"  )
 NUMBER OF OUTER CORE ORBITALS:     2   (    2A'  +    0A"  )
 NUMBER OF VALENCE ORBITALS:        9   (    7A'  +    2A"  )


 NUCLEAR REPULSION ENERGY   25.77241809

 Eigenvalues of metric

         1 0.209E-02 0.323E-02 0.328E-02 0.401E-02 0.434E-02 0.468E-02 0.476E-02 0.984E-02
         2 0.330E-02 0.468E-02 0.880E-01 0.981E-01 0.143E+00 0.190E+00 0.257E+00 0.394E+00


 Contracted 2-electron integrals neglected if value below      1.0D-22

        1426049. INTEGRALS WRITTEN OUT IN     349 BLOCKS ON RECORD 1290 OF FILE 1


 NUMBER OF SORTED TWO-ELECTRON INTEGRALS:    1544830.     BUFFER LENGTH:  32768
 NUMBER OF SEGMENTS:   1  SEGMENT LENGTH:    1544830      RECORD LENGTH: 524288

 Memory used in sort:       2.10 MW

 SORT1 READ     1426049. AND WROTE     1455925. INTEGRALS IN      5 RECORDS. CPU TIME:     0.02 SEC, REAL TIME:     0.04 SEC
 SORT2 READ     1455925. AND WROTE     1544830. INTEGRALS IN      1 RECORDS. CPU TIME:     0.05 SEC, REAL TIME:     0.07 SEC

 FILE SIZES:   FILE 1:    53.0 MBYTE,  FILE 4:    21.0 MBYTE,   TOTAL:     74.0 MBYTE

 OPERATOR DM      FOR CENTER  0  COORDINATES:    0.000000    0.000000    0.000000


 **********************************************************************************************************************************
 DATASETS  * FILE   NREC   LENGTH (MB)   RECORD NAMES
              1      19       42.18       500      610      700      900      950      970     1000      129      960     1100   
                                          VAR    BASINP    GEOM    SYMINP    ZMAT    AOBASIS   BASIS     P2S    ABASIS      S 
                                         1400     1410     1200     1210     1080     1600     1650     1300     1700   
                                           T        V       H0       H01     AOSYM     SMH    MOLCAS    ERIS     OPER   

 PROGRAMS   *        TOTAL       INT
 CPU TIMES  *         0.98      0.84
 REAL TIME  *         2.64 SEC
 DISK USED  *        74.32 MB
 **********************************************************************************************************************************


 PROGRAM * RHF-SCF (CLOSED SHELL)       Authors: W. Meyer, H.-J. Werner


 NUMBER OF ELECTRONS:       8+    8-
 CONVERGENCE THRESHOLDS:    1.00E-10 (Density)    1.00E-13 (Energy)
 MAX. NUMBER OF ITERATIONS:      500
 INTERPOLATION TYPE:            DIIS
 INTERPOLATION STEPS:              2 (START)      1 (STEP)
 LEVEL SHIFTS:                  0.00 (CLOSED)  0.00 (OPEN) 



 Orbital guess generated from atomic densities. Full valence occupancy:    9   2

 Molecular orbital dump at record        2100.2

 Initial occupancy:   7   1

 ITERATION    DDIFF          GRAD             ENERGY        2-EL.EN.            DIPOLE MOMENTS         DIIS   ORB.
    1      0.000D+00      0.000D+00      -137.76475056    155.210160   -0.64477    0.35101    0.00000    0    start
    2      0.000D+00      0.114D-01      -137.79433810    155.429282   -0.65135    0.12765    0.00000    1    diag
    3      0.170D-01      0.571D-02      -137.80078621    156.226278   -0.60843    0.30349    0.00000    2    diag
    4      0.549D-02      0.149D-02      -137.80126872    155.946986   -0.60236    0.29588    0.00000    3    diag
    5      0.126D-02      0.299D-03      -137.80133647    155.997559   -0.60117    0.30579    0.00000    4    diag
    6      0.481D-03      0.856D-04      -137.80134435    155.999615   -0.60034    0.30780    0.00000    5    diag
    7      0.170D-03      0.298D-04      -137.80134530    155.999732   -0.60041    0.30757    0.00000    6    diag
    8      0.743D-04      0.648D-05      -137.80134534    155.999548   -0.60041    0.30732    0.00000    7    diag
    9      0.164D-04      0.138D-05      -137.80134534    155.999554   -0.60043    0.30724    0.00000    8    diag
   10      0.309D-05      0.342D-06      -137.80134534    155.999543   -0.60043    0.30722    0.00000    9    orth
   11      0.933D-06      0.812D-07      -137.80134534    155.999541   -0.60043    0.30722    0.00000    9    diag
   12      0.221D-06      0.175D-07      -137.80134534    155.999541   -0.60043    0.30722    0.00000    9    diag
   13      0.414D-07      0.466D-08      -137.80134534    155.999541   -0.60043    0.30722    0.00000    9    diag
   14      0.116D-07      0.143D-08      -137.80134534    155.999541   -0.60043    0.30722    0.00000    9    diag
   15      0.261D-08      0.251D-09      -137.80134534    155.999541   -0.60043    0.30722    0.00000    9    diag
   16      0.372D-09      0.625D-10      -137.80134534    155.999541   -0.60043    0.30722    0.00000    9    diag
   17      0.126D-09      0.142D-10      -137.80134534    155.999541   -0.60043    0.30722    0.00000    9    diag
   18      0.344D-10      0.269D-11      -137.80134534    155.999541   -0.60043    0.30722    0.00000    0    orth

 Final occupancy:   7   1

 !RHF STATE  1.1 Energy              -137.801345343621
 Nuclear energy                        25.77241809
 One-electron energy                 -241.57353405
 Two-electron energy                   77.99977062
 Virial quotient                       -1.00204316
 !RHF STATE  1.1 Dipole moment         -0.60042889     0.30722058     0.00000000
 Dipole moment /Debye                  -1.52603806     0.78082569     0.00000000

 Orbital energies:

         1.1          2.1          3.1          4.1          5.1          6.1          7.1          8.1          9.1
    -26.341154   -11.391689    -1.638058    -0.913658    -0.732773    -0.653523    -0.430100     0.070559     0.081898

         1.2          2.2          3.2
     -0.686041     0.033501     0.118318


 HOMO      7.1    -0.430100 =     -11.7036eV
 LUMO      2.2     0.033501 =       0.9116eV
 LUMO-HOMO         0.463601 =      12.6152eV


 **********************************************************************************************************************************
 DATASETS  * FILE   NREC   LENGTH (MB)   RECORD NAMES
              1      19       42.18       500      610      700      900      950      970     1000      129      960     1100   
                                          VAR    BASINP    GEOM    SYMINP    ZMAT    AOBASIS   BASIS     P2S    ABASIS      S 
                                         1400     1410     1200     1210     1080     1600     1650     1300     1700   
                                           T        V       H0       H01     AOSYM     SMH    MOLCAS    ERIS     OPER   

              2       4        2.84       700     1000      520     2100   
                                         GEOM     BASIS   MCVARS     RHF  

 PROGRAMS   *        TOTAL    HF-SCF       INT
 CPU TIMES  *         1.24      0.27      0.84
 REAL TIME  *         2.98 SEC
 DISK USED  *        74.32 MB
 **********************************************************************************************************************************


 PROGRAM * CCSD (Closed-shell coupled cluster)     Authors: C. Hampel, H.-J. Werner, 1991, M. Deegan, P.J. Knowles, 1992

                                  CCSD-F12 implementation by  H.-J. Werner, 2007

                   Density fitting integral evaluation by F.R. Manby, 2003,2007, G. Knizia, 2010


 Basis set AUG-CC-PVDZ/JKFIT generated.  Number of basis functions:   204 
 Basis set CC-PVDZ-F12/OPTRI generated.  Number of basis functions:   154 
 Basis set AUG-CC-PVDZ/MP2FIT generated. Number of basis functions:   167 

 Convergence thresholds:  THRVAR = 1.00D-16  THRDEN = 1.00D-12

 CCSD(T)     terms to be evaluated (factor= 1.000)


 Number of core orbitals:           2 (   2   0 )
 Number of closed-shell orbitals:   6 (   5   1 )
 Number of external orbitals:      61 (  42  19 )

 Molecular orbitals read from record     2100.2  Type=RHF/CANONICAL (state 1.1)

 MP2-F12 correlation treatment (H.-J. Werner, 2006)
 ==================================================

 Using MP2-F12 with ansatz 3C(FIX)

 Using projected zeroth-order Hamiltonian (+Z)

 FOCKRIB=T FOCKRIC=T FOCKRIP=T CABSP=T CABSA=T CABSK=T CABSF=T GBC=F EBC=F DMAT=T NOFIK=T NOPAO=1 SOLVE=-1  USEPAO=0
 EXCH_A= T EXCH_B= F EXCH_C= F EXCH_P= F

 Geminal basis:    OPTFULL  GEM_TYPE=SLATER  BETA=1.0  NGEM=6

 Optimizing Gaussian exponents for each gem_beta

 Geminal optimization for beta= 1.0000
 Weight function:   m=0, omega= 1.4646

 Augmented Hessian optimization of geminal fit. Trust ratio= 0.40000
 Convergence reached after   2 iterations. Final gradient= 8.66D-16, Step= 4.23D-06, Delta= 1.28D-09

 Alpha:                 0.19532     0.81920     2.85917     9.50073    35.69989   197.79328
 Coeff:                 0.27070     0.30552     0.18297     0.10986     0.06810     0.04224


 Symmetry turned off. Reference energy:       -137.801345343621

 All pairs explicitly correlated. Number of r12-pairs:           21

 Excluding core orbitals from MO domains

 AO(A)-basis ORBITAL           loaded. Number of functions:      69
 RI(R)-basis CC-PVDZ-F12/OPTRI loaded. Number of functions:     154
 DF-basis AUG-CC-PVDZ/JKFIT    loaded. Number of functions:     204

 Screening thresholds:   THRAO=  1.00D-10  THRMO=  1.00D-10  THRPROD=  1.00D-10
                         THRSW=  1.00D-07  THROV=  1.00D-12  THRAOF12= 1.00D-08

 CPU time for Fock operators                      0.88 sec

 Construction of ABS:
 Smallest eigenvalue of S          3.95E-03  (threshold= 1.00E-08)
 Ratio eigmin/eigmax               8.43E-04  (threshold= 1.00E-09)
 Smallest eigenvalue of S kept     3.95E-03  (threshold= 3.95E-03, 0 functions deleted, 154 kept)

 Construction of CABS:
 Smallest eigenvalue of S          1.13E-05  (threshold= 1.00E-08)
 Ratio eigmin/eigmax               1.13E-05  (threshold= 1.00E-09)
 Smallest eigenvalue of S kept     1.13E-05  (threshold= 1.13E-05, 0 functions deleted, 154 kept)

 CPU time for CABS singles                        0.00 sec

 CABS-singles contribution of  -0.00574097 patched into reference energy.
 New reference energy        -137.80708632

 AO(A)-basis ORBITAL           loaded. Number of functions:      69
 RI(R)-basis CC-PVDZ-F12/OPTRI loaded. Number of functions:     154
 DF-basis AUG-CC-PVDZ/MP2FIT   loaded. Number of functions:     167

 Screening thresholds:   THRAO=  1.00D-10  THRMO=  1.00D-10  THRPROD=  1.00D-10
                         THRSW=  1.00D-07  THROV=  1.00D-12  THRAOF12= 1.00D-08

 CPU time for 3-index integral evaluation         0.40 sec
 CPU time for first  half transformation          0.04 sec ( 3799.1 MFLOP/sec)
 CPU time for assembly                            0.05 sec (15497.6 MFLOP/sec)
 CPU time for tranop_f12                          0.06 sec (17416.6 MFLOP/sec)
 CPU time for f12 integrals (total)               1.21 sec, Elapsed time:      1.26 sec
 CPU time for f12 matrices (total)                0.02 sec, Elapsed time:      0.02 sec

 Diagonal F12 approximation with fixed coefficients:  TSING= 0.500,  TTRIP= 0.250 (scaled by -1/beta)

 DF-MP2-F12 energy corrections:
 ==============================
 Approx.                                    Singlet             Triplet             Total
 DF-MP2-F12/3*C(DX,FIX)                -0.077611403471     -0.015962311931     -0.093573715402
 DF-MP2-F12/3*C(FIX)                   -0.068697917593     -0.015075602148     -0.083773519741
 DF-MP2-F12/3C(FIX)                    -0.069352057020     -0.015829511383     -0.085181568404

 DF-MP2-F12 correlation energies:
 ================================
 Approx.                                    Singlet             Triplet             Ecorr            Total Energy
 DF-MP2                                -0.226840405352     -0.132807192043     -0.359647597395   -138.166733914971
 DF-MP2-F12/3*C(DX,FIX)                -0.304451808823     -0.148769503974     -0.453221312797   -138.260307630373
 DF-MP2-F12/3*C(FIX)                   -0.295538322945     -0.147882794190     -0.443421117136   -138.250507434712
 DF-MP2-F12/3C(FIX)                    -0.296192462373     -0.148636703426     -0.444829165799   -138.251915483375

 SCS-DF-MP2 energies (F_SING= 1.20000  F_TRIP= 0.62222  F_PARALLEL= 0.33333):
 ============================================================================
 SCS-DF-MP2                            -0.354844072583   -138.161930390159
 SCS-DF-MP2-F12/3*C(DX,FIX)            -0.457909861949   -138.264996179526
 SCS-DF-MP2-F12/3*C(FIX)               -0.446661948364   -138.253748265940
 SCS-DF-MP2-F12/3C(FIX)                -0.447916014757   -138.255002332333

 Symmetry restored.
 Symmetry transformation completed.

 Number of N-1 electron functions:               6
 Number of N-2 electron functions:              21
 Number of singly external CSFs:               229
 Number of doubly external CSFs:             35788
 Total number of CSFs:                       36018

 Length of J-op  integral file:              15.24 MB
 Length of K-op  integral file:              18.55 MB
 Length of 3-ext integral record:             0.00 MB

 Memory could be reduced to 1.16 Mwords without degradation in triples

 Integral transformation finished. Total CPU:   0.02 sec, npass=  1  Memory used:   0.52 MW

 Reference energy:                   -137.80708632

 Adding F12 terms to K(Cij), methodcc=6,  factor= 1.0

 ITER.      SQ.NORM     CORR.ENERGY   TOTAL ENERGY   ENERGY CHANGE        DEN1      VAR(S)    VAR(P)  DIIS     TIME  TIME/IT
   1      1.09646098    -0.36594505  -138.17303137    -0.00619628     0.00687065  0.33D-02  0.26D-02  1  1     2.23     0.05
   2      1.10697311    -0.36657269  -138.17365901    -0.00062764    -0.01004996  0.96D-04  0.61D-03  2  2     2.29     0.05
   3      1.11440539    -0.36752181  -138.17460813    -0.00094913    -0.00275624  0.14D-03  0.90D-04  3  3     2.34     0.05
   4      1.11888073    -0.36769961  -138.17478593    -0.00017780    -0.00150046  0.15D-04  0.25D-04  4  4     2.38     0.05
   5      1.12156151    -0.36775310  -138.17483942    -0.00005349    -0.00048228  0.21D-05  0.40D-05  5  5     2.43     0.05
   6      1.12251675    -0.36774282  -138.17482913     0.00001028    -0.00006315  0.10D-06  0.62D-06  6  6     2.48     0.05
   7      1.12270909    -0.36774327  -138.17482959    -0.00000045    -0.00002355  0.39D-07  0.12D-06  6  4     2.52     0.05
   8      1.12272122    -0.36774381  -138.17483013    -0.00000054     0.00000619  0.10D-07  0.19D-07  6  1     2.57     0.05
   9      1.12272222    -0.36774469  -138.17483101    -0.00000088     0.00000128  0.31D-08  0.25D-08  6  2     2.63     0.06
  10      1.12271968    -0.36774512  -138.17483144    -0.00000043     0.00000022  0.51D-09  0.45D-09  6  3     2.67     0.06
  11      1.12271841    -0.36774521  -138.17483153    -0.00000009     0.00000014  0.16D-09  0.68D-10  6  5     2.73     0.06
  12      1.12271730    -0.36774535  -138.17483166    -0.00000013     0.00000019  0.21D-10  0.15D-10  6  6     2.77     0.06
  13      1.12271616    -0.36774539  -138.17483171    -0.00000004     0.00000013  0.51D-11  0.22D-11  6  1     2.82     0.06
  14      1.12271557    -0.36774543  -138.17483174    -0.00000004     0.00000013  0.33D-12  0.37D-12  6  4     2.88     0.06
  15      1.12271539    -0.36774543  -138.17483175    -0.00000001     0.00000002  0.72D-13  0.93D-13  6  2     2.93     0.06
  16      1.12271529    -0.36774544  -138.17483175    -0.00000000     0.00000002  0.71D-14  0.15D-13  6  3     2.98     0.06
  17      1.12271526    -0.36774544  -138.17483176    -0.00000000     0.00000000  0.13D-14  0.19D-14  6  5     3.03     0.06
  18      1.12271526    -0.36774544  -138.17483176     0.00000000    -0.00000000  0.38D-15  0.37D-15  6  6     3.08     0.06
  19      1.12271525    -0.36774544  -138.17483176     0.00000000    -0.00000000  0.15D-15  0.93D-16  6  1     3.13     0.06
  20      1.12271525    -0.36774544  -138.17483176     0.00000000    -0.00000000  0.23D-16  0.21D-16  6  4     3.17     0.06
  21      1.12271525    -0.36774544  -138.17483176     0.00000000     0.00000000  0.79D-17  0.40D-17  6  2     3.23     0.06
  22      1.12271525    -0.36774544  -138.17483176     0.00000000    -0.00000000  0.59D-18  0.74D-18  6  5     3.27     0.06
  23      1.12271525    -0.36774544  -138.17483176     0.00000000     0.00000000  0.10D-18  0.35D-19  6  3     3.32     0.06
  24      1.12271525    -0.36774544  -138.17483176     0.00000000    -0.00000000  0.32D-19  0.80D-20  6  6     3.38     0.06
  25      1.12271525    -0.36774544  -138.17483176     0.00000000    -0.00000000  0.44D-20  0.17D-20  6  1     3.43     0.06
  26      1.12271525    -0.36774544  -138.17483176     0.00000000    -0.00000000  0.10D-20  0.25D-21  6  4     3.48     0.06
  27      1.12271525    -0.36774544  -138.17483176    -0.00000000     0.00000000  0.12D-21  0.48D-22  6  2     3.53     0.06

 Norm of t1 vector:      0.09182315      S-energy:     0.00000000      T1 diagnostic:  0.01874332
                                                                       D1 diagnostic:  0.05614259

 Doubles amplitudes (print threshold =  0.500E-01):

         I         J         SYM. A    SYM. B    A         B      T(IJ, AB)

         5         5         2         2         1         1     -0.05960799

 Adding energy correction from Wij-K(Fij), methodcc=6  factor= 1.0

  CCSD correlation energy              -0.367745437891
  MP2-F12 correction (uncoupled)       -0.080549996142
  C*T doubles correction               -0.002592815251
  f12b correction                       0.010326278269


 Total CPU time for triples:      0.26 sec


 RESULTS
 =======

  Reference energy                   -137.801345343621
  F12 singles correction               -0.005740973955

 F12 singles corrections added to reference energy

  New reference energy               -137.807086317576

  F12a singlet correction              -0.067997395881
  F12a triplet correction              -0.015145415512
  F12a total correction                -0.083142811392

 F12a corrections for ansatz F12/3C(FIX) added to CCSD energy

  CCSD-F12a singlet pair energy        -0.317093046774
  CCSD-F12a triplet pair energy        -0.133795202510
  CCSD-F12a correlation energy         -0.450888249284

  Triples (T) contribution             -0.013338769682
  Total correlation energy             -0.464227018965

  CCSD-F12a total energy             -138.257974566860
  CCSD[T]-F12a energy                -138.272721566598
  CCSD-T-F12a energy                 -138.270835142176
 !CCSD(T)-F12a total energy          -138.271313336542

 F12b corrections for ansatz F12/3C(FIX) added to CCSD(T)-F12a energy

  CCSD-F12b singlet pair energy        -0.307741207097
  CCSD-F12b triplet pair energy        -0.132820763917
  CCSD-F12b correlation energy         -0.440561971015

  Triples (T) contribution             -0.013338769682
  Total correlation energy             -0.453900740696

  CCSD-F12b total energy             -138.247648288591
  CCSD[T]-F12b energy                -138.262395288329
  CCSD-T-F12b energy                 -138.260508863907
 !CCSD(T)-F12b total energy          -138.260987058273

 Timing summary (sec):

 STEP                 CPU(USER)    SYS     CPU(TOT)    WALL
 Transformation          0.03      0.02      0.05      0.05
 CCSD iterations         1.36      0.16      1.52      1.54
 Triples                 0.26      0.00      0.26      0.27
 MP2-F12                 2.14      0.08      2.22      2.49
 F12b energy             0.03      0.00      0.03      0.03

 Program statistics:

 Available memory in ccsd:              1999999744
 Min. memory needed in ccsd:                136839
 Max. memory used in ccsd:                  163083
 Max. memory used in cckext:                208330 (28 integral passes)



 **********************************************************************************************************************************
 DATASETS  * FILE   NREC   LENGTH (MB)   RECORD NAMES
              1      20       45.77       500      610      700      900      950      970     1000      129      960     1100   
                                          VAR    BASINP    GEOM    SYMINP    ZMAT    AOBASIS   BASIS     P2S    ABASIS      S 
                                         1400     1410     1200     1210     1080     1600     1650     1300     1700     1380   
                                           T        V       H0       H01     AOSYM     SMH    MOLCAS    ERIS     OPER     JKOP   

              2       6        2.90       700     1000      520     2100     7360     7350   
                                         GEOM     BASIS   MCVARS     RHF    F12ABS    EF12   

 PROGRAMS   *        TOTAL   CCSD(T)    HF-SCF       INT
 CPU TIMES  *         5.09      3.85      0.27      0.84
 REAL TIME  *         7.39 SEC
 DISK USED  *        97.74 MB
 **********************************************************************************************************************************
 SETTING EE(1)          =      -138.26098706  AU                              


 Computing numerical gradient using default procedure for command CCSD(T)-F12

 *** Long output written to logfile /home/mdavis/f12eom_optimizer/tests/slurm/molpro_step.log ***


 Running default procedure: HF-SCF000  CCSD(T)-F12


 Generated   3 symmetrical displacements

 Numerical gradient for CCSD(T)-F12

 Total Energy          -138.26098706  Dipole moments:    0.000000    0.000000    0.000000

 Atom          dE/dx               dE/dy               dE/dz                  d2E/dx2             d2E/dy2             d2E/dz2
   1        -0.014204061         0.002861884         0.000000000            0.000000000         0.000000000         0.000000000
   2         0.019574794         0.045546393         0.000000000            0.000000000         0.000000000         0.000000000
   3        -0.005370733        -0.048408277         0.000000000            0.000000000         0.000000000         0.000000000

 Recomputing wavefunction at initial geometry


 **********************************************************************************************************************************
 DATASETS  * FILE   NREC   LENGTH (MB)   RECORD NAMES
              1      21       45.99       500      610      700      900      701      950      970     1000      129      960   
                                          VAR    BASINP    GEOM    SYMINP    GEOM     ZMAT    AOBASIS   BASIS     P2S    ABASIS    
                                         1100     1400     1410     1200     1210     1080     1600     1650     1300     1700   
                                           S        T        V       H0       H01     AOSYM     SMH    MOLCAS    ERIS     OPER   
                                         1380   
                                         JKOP   

              2       8        3.12       700     1000      520     2100     7360     7350      701     5600   
                                         GEOM     BASIS   MCVARS     RHF    F12ABS    EF12     GEOM     GINFO   

 PROGRAMS   *        TOTAL    FORCES    HF-SCF       INT   CCSD(T)    HF-SCF       INT
 CPU TIMES  *        41.03      3.81      0.04     32.09      3.85      0.27      0.84
 REAL TIME  *        51.15 SEC
 DISK USED  *       100.73 MB
 **********************************************************************************************************************************
 EE(1)            =     -138.260987058273 AU
 GRADX(1:3)       = [     -0.014204060527    0.019574793933   -0.005370733406] AU
 GRADY(1:3)       = [      0.002861884409    0.045546392765   -0.048408277174] AU
 GRADZ(1:3)       = [      0.000000000000    0.000000000000    0.000000000000] AU

 CCSD(T)-F12/cc-pVDZ-F12 energy=   -138.260987058273

     CCSD(T)-F12          HF-SCF     CCSD(T)-F12          HF-SCF
   -138.26098706   -137.80134534   -138.26098706   -137.80134534
 **********************************************************************************************************************************
 Molpro calculation terminated
