
 Primary working directories    : /scratch/mdavis/molpro_step_2022-08-17_16_15_22/molpro.CUvJe7OdXC
 Secondary working directories  : /scratch/mdavis/molpro_step_2022-08-17_16_15_22/molpro.CUvJe7OdXC
 Wavefunction directory         : /home/mdavis/f12eom_optimizer/tests/slurm/./
 Main file repository           : /scratch/mdavis/molpro_step_2022-08-17_16_15_22/molpro.CUvJe7OdXC/

 id        : olemiss

 Nodes     nprocs
 node17       1

 Using customized tuning parameters: mindgm=1; mindgv=20; mindgc=4; mindgr=1; noblas=0; minvec=7
 default implementation of scratch files=df  


 Variables initialized (945), CPU time= 0.00 sec
 ***,part of geometry opt run
 memory, 2000.0, m;
 gthresh,energy=1.d-12,zero=1.d-22,oneint=1.d-22,twoint=1.d-22;
 gthresh,optgrad=1.d-8,optstep=1.d-8;
 nocompress;
 bohr;
 geometry={
      3
 Fragment 1
     H  -1.3179659557   1.9605310828   0.0000000000
     C   0.6560833869   1.0515788974   0.0000000000
     F  -0.0245054871  -1.3540339910   0.0000000000
      }
 
 set,charge=0
 set,spin=0
 basis=vdz-f12
 hf,maxit=500;wf,charge=0,spin=0;accu,20;
 ccsd(t)-f12,maxit=250;wf,charge=0,spin=0;orbital,IGNORE_ERROR;
 ee(1)=energy(2)
 forces,varsav
 SHOW[f18.12],ee(1)
 SHOW[f18.12],GRADX
 SHOW[f18.12],GRADY
 SHOW[f18.12],GRADZ
 Commands  initialized (802), CPU time= 0.01 sec, 659 directives.
 Default parameters read. Elapsed time= 0.10 sec

 Checking input...
 Passed
1


                                         ***  PROGRAM SYSTEM MOLPRO  ***
                                       Copyright, TTI GmbH Stuttgart, 2015
                                    Version 2020.1 linked Oct  6 2020 12:04:11


 **********************************************************************************************************************************
 LABEL *   part of geometry opt run                                                      
  64 bit serial version                                                                  DATE: 17-Aug-22          TIME: 16:15:23  
 **********************************************************************************************************************************

 SHA1:             8c27446f6450a7499e38f603e13c65f775101d37
 **********************************************************************************************************************************

 Memory per process:      2000 MW
 Total memory per node:   2000 MW

 GA preallocation disabled
 GA check disabled

 Variable memory set to 2000.0 MW


 THRESHOLDS:

 ZERO    =  1.00D-22  ONEINT  =  1.00D-22  TWOINT  =  1.00D-22  PREFAC  =  1.00D-14  XXXXXX  =  1.00D-09  EORDER  =  1.00D-04
 ENERGY  =  1.00D-12  ETEST   =  0.00D+00  EDENS   =  0.00D+00  THRDEDEF=  1.00D-06  GRADIENT=  1.00D-05  STEP    =  1.00D-03
 ORBITAL =  1.00D-05  CIVEC   =  1.00D-05  COEFF   =  1.00D-04  PRINTCI =  5.00D-02  PUNCHCI =  9.90D+01  OPTGRAD =  3.00D-04
 OPTENERG=  1.00D-06  OPTSTEP =  3.00D-04  THRGRAD =  1.00D-10  COMPRESS=  1.00D-11  VARMIN  =  1.00D-07  VARMAX  =  1.00D-03
 THRDOUB =  0.00D+00  THRDIV  =  1.00D-05  THRRED  =  1.00D-07  THRPSP  =  1.00D+00  THRDC   =  1.00D-10  THRCS   =  1.00D-10
 THRNRM  =  1.00D-08  THREQ   =  0.00D+00  THRDE   =  1.00D+00  THRREF  =  1.00D-05  SPARFAC =  1.00D+00  THRDLP  =  1.00D-07
 THRDIA  =  1.00D-10  THRDLS  =  1.00D-07  THRGPS  =  0.00D+00  THRKEX  =  0.00D+00  THRDIS  =  2.00D-01  THRVAR  =  1.00D-10
 THRLOC  =  1.00D-06  THRGAP  =  1.00D-06  THRLOCT = -1.00D+00  THRGAPT = -1.00D+00  THRORB  =  1.00D-06  THRMLTP =  0.00D+00
 THRCPQCI=  1.00D-10  KEXTA   =  0.00D+00  THRCOARS=  0.00D+00  SYMTOL  =  1.00D-06  GRADTOL =  1.00D-06  THROVL  =  1.00D-08
 THRORTH =  1.00D-08  GRID    =  1.00D-06  GRIDMAX =  1.00D-03  DTMAX   =  0.00D+00  THROCCDE=  1.00D-01  THROCCDE=  1.00D-01
 THRPRINT=  2.50D-01


 THRESHOLDS:

 ZERO    =  1.00D-22  ONEINT  =  1.00D-22  TWOINT  =  1.00D-22  PREFAC  =  1.00D-14  XXXXXX  =  1.00D-09  EORDER  =  1.00D-04
 ENERGY  =  1.00D-12  ETEST   =  0.00D+00  EDENS   =  0.00D+00  THRDEDEF=  1.00D-06  GRADIENT=  1.00D-05  STEP    =  1.00D-03
 ORBITAL =  1.00D-05  CIVEC   =  1.00D-05  COEFF   =  1.00D-04  PRINTCI =  5.00D-02  PUNCHCI =  9.90D+01  OPTGRAD =  1.00D-08
 OPTENERG=  1.00D-06  OPTSTEP =  1.00D-08  THRGRAD =  1.00D-10  COMPRESS=  1.00D-11  VARMIN  =  1.00D-07  VARMAX  =  1.00D-03
 THRDOUB =  0.00D+00  THRDIV  =  1.00D-05  THRRED  =  1.00D-07  THRPSP  =  1.00D+00  THRDC   =  1.00D-10  THRCS   =  1.00D-10
 THRNRM  =  1.00D-08  THREQ   =  0.00D+00  THRDE   =  1.00D+00  THRREF  =  1.00D-05  SPARFAC =  1.00D+00  THRDLP  =  1.00D-07
 THRDIA  =  1.00D-10  THRDLS  =  1.00D-07  THRGPS  =  0.00D+00  THRKEX  =  0.00D+00  THRDIS  =  2.00D-01  THRVAR  =  1.00D-10
 THRLOC  =  1.00D-06  THRGAP  =  1.00D-06  THRLOCT = -1.00D+00  THRGAPT = -1.00D+00  THRORB  =  1.00D-06  THRMLTP =  0.00D+00
 THRCPQCI=  1.00D-10  KEXTA   =  0.00D+00  THRCOARS=  0.00D+00  SYMTOL  =  1.00D-06  GRADTOL =  1.00D-06  THROVL  =  1.00D-08
 THRORTH =  1.00D-08  GRID    =  1.00D-06  GRIDMAX =  1.00D-03  DTMAX   =  0.00D+00  THROCCDE=  1.00D-01  THROCCDE=  1.00D-01
 THRPRINT=  2.50D-01


 Input parameters for SORTINT:

 COMPRESS =    0.000000
 C_FINAL  =    1.000000
 DEBUG    =   -1.000000
 C_SORT1  =    0.000000
 C_SEWARD =    0.000000
 THRESH   =    0.000000
 IO       =  molpro                                                                                                                          
 SPRI     =    0.000000
 ZUNIT=BOHR


 Geometry recognized as XYZ

 SETTING CHARGE         =     0.00000000D+00                                  
 SETTING SPIN           =     0.00000000D+00                                  
 SETTING BASIS          =    VDZ-F12


 Recomputing integrals since basis changed


 Using spherical harmonics

 Library entry H      S cc-pVDZ-F12          selected for orbital group  1
 Library entry H      P cc-pVDZ-F12          selected for orbital group  1
 Library entry C      S cc-pVDZ-F12          selected for orbital group  2
 Library entry C      P cc-pVDZ-F12          selected for orbital group  2
 Library entry C      D cc-pVDZ-F12          selected for orbital group  2
 Library entry F      S cc-pVDZ-F12          selected for orbital group  3
 Library entry F      P cc-pVDZ-F12          selected for orbital group  3
 Library entry F      D cc-pVDZ-F12          selected for orbital group  3


 PROGRAM * SEWARD (Integral evaluation for generally contracted gaussian basis sets)     Author: Roland Lindh, 1990

 Geometry written to block  1 of record 700


 Point group  Cs  



 ATOMIC COORDINATES

 NR  ATOM    CHARGE       X              Y              Z

   1  H       1.00   -1.317965956    1.960531083    0.000000000
   2  C       6.00    0.656083387    1.051578897    0.000000000
   3  F       9.00   -0.024505487   -1.354033991    0.000000000

 Bond lengths in Bohr (Angstrom)

 1-2  2.173261347  2-3  2.500034917
     ( 1.150040378)     ( 1.322961504)

 Bond angles

  1-2-3   98.92662263

 NUCLEAR CHARGE:                   16
 NUMBER OF PRIMITIVE AOS:          93
 NUMBER OF SYMMETRY AOS:           89
 NUMBER OF CONTRACTIONS:           69   (   49A'  +   20A"  )
 NUMBER OF INNER CORE ORBITALS:     0   (    0A'  +    0A"  )
 NUMBER OF OUTER CORE ORBITALS:     2   (    2A'  +    0A"  )
 NUMBER OF VALENCE ORBITALS:        9   (    7A'  +    2A"  )


 NUCLEAR REPULSION ENERGY   26.89003517

 Eigenvalues of metric

         1 0.176E-02 0.322E-02 0.325E-02 0.348E-02 0.434E-02 0.468E-02 0.474E-02 0.941E-02
         2 0.330E-02 0.468E-02 0.826E-01 0.955E-01 0.140E+00 0.180E+00 0.251E+00 0.388E+00


 Contracted 2-electron integrals neglected if value below      1.0D-22

        1426049. INTEGRALS WRITTEN OUT IN     349 BLOCKS ON RECORD 1290 OF FILE 1


 NUMBER OF SORTED TWO-ELECTRON INTEGRALS:    1544830.     BUFFER LENGTH:  32768
 NUMBER OF SEGMENTS:   1  SEGMENT LENGTH:    1544830      RECORD LENGTH: 524288

 Memory used in sort:       2.10 MW

 SORT1 READ     1426049. AND WROTE     1455925. INTEGRALS IN      5 RECORDS. CPU TIME:     0.03 SEC, REAL TIME:     0.04 SEC
 SORT2 READ     1455925. AND WROTE     1544830. INTEGRALS IN      1 RECORDS. CPU TIME:     0.05 SEC, REAL TIME:     0.07 SEC

 FILE SIZES:   FILE 1:    53.0 MBYTE,  FILE 4:    21.0 MBYTE,   TOTAL:     74.0 MBYTE

 OPERATOR DM      FOR CENTER  0  COORDINATES:    0.000000    0.000000    0.000000


 **********************************************************************************************************************************
 DATASETS  * FILE   NREC   LENGTH (MB)   RECORD NAMES
              1      19       42.18       500      610      700      900      950      970     1000      129      960     1100   
                                          VAR    BASINP    GEOM    SYMINP    ZMAT    AOBASIS   BASIS     P2S    ABASIS      S 
                                         1400     1410     1200     1210     1080     1600     1650     1300     1700   
                                           T        V       H0       H01     AOSYM     SMH    MOLCAS    ERIS     OPER   

 PROGRAMS   *        TOTAL       INT
 CPU TIMES  *         1.00      0.86
 REAL TIME  *         2.64 SEC
 DISK USED  *        74.32 MB
 **********************************************************************************************************************************


 PROGRAM * RHF-SCF (CLOSED SHELL)       Authors: W. Meyer, H.-J. Werner


 NUMBER OF ELECTRONS:       8+    8-
 CONVERGENCE THRESHOLDS:    1.00E-10 (Density)    1.00E-13 (Energy)
 MAX. NUMBER OF ITERATIONS:      500
 INTERPOLATION TYPE:            DIIS
 INTERPOLATION STEPS:              2 (START)      1 (STEP)
 LEVEL SHIFTS:                  0.00 (CLOSED)  0.00 (OPEN) 



 Orbital guess generated from atomic densities. Full valence occupancy:    9   2

 Molecular orbital dump at record        2100.2

 Initial occupancy:   7   1

 ITERATION    DDIFF          GRAD             ENERGY        2-EL.EN.            DIPOLE MOMENTS         DIIS   ORB.
    1      0.000D+00      0.000D+00      -137.77574092    156.784512   -0.60436    0.20338    0.00000    0    start
    2      0.000D+00      0.106D-01      -137.80272011    157.562579   -0.62513    0.09761    0.00000    1    diag
    3      0.151D-01      0.438D-02      -137.80667733    158.027088   -0.56168    0.22394    0.00000    2    diag
    4      0.447D-02      0.132D-02      -137.80706077    157.790769   -0.55904    0.21742    0.00000    3    diag
    5      0.116D-02      0.300D-03      -137.80711737    157.850397   -0.55626    0.22815    0.00000    4    diag
    6      0.435D-03      0.777D-04      -137.80712325    157.852195   -0.55510    0.23034    0.00000    5    diag
    7      0.147D-03      0.264D-04      -137.80712390    157.852540   -0.55519    0.23043    0.00000    6    diag
    8      0.607D-04      0.564D-05      -137.80712392    157.852367   -0.55521    0.23029    0.00000    7    diag
    9      0.133D-04      0.111D-05      -137.80712393    157.852380   -0.55524    0.23025    0.00000    8    diag
   10      0.244D-05      0.256D-06      -137.80712393    157.852372   -0.55524    0.23023    0.00000    9    orth
   11      0.652D-06      0.605D-07      -137.80712393    157.852370   -0.55524    0.23023    0.00000    9    diag
   12      0.155D-06      0.125D-07      -137.80712393    157.852370   -0.55524    0.23023    0.00000    9    diag
   13      0.269D-07      0.311D-08      -137.80712393    157.852370   -0.55524    0.23023    0.00000    9    diag
   14      0.749D-08      0.856D-09      -137.80712393    157.852370   -0.55524    0.23023    0.00000    9    diag
   15      0.197D-08      0.168D-09      -137.80712393    157.852370   -0.55524    0.23023    0.00000    9    diag
   16      0.212D-09      0.450D-10      -137.80712393    157.852370   -0.55524    0.23023    0.00000    9    diag
   17      0.831D-10      0.871D-11      -137.80712393    157.852370   -0.55524    0.23023    0.00000    0    orth

 Final occupancy:   7   1

 !RHF STATE  1.1 Energy              -137.807123925124
 Nuclear energy                        26.89003517
 One-electron energy                 -243.62334425
 Two-electron energy                   78.92618515
 Virial quotient                       -1.00123752
 !RHF STATE  1.1 Dipole moment         -0.55523863     0.23023087     0.00000000
 Dipole moment /Debye                  -1.41118339     0.58515017     0.00000000

 Orbital energies:

         1.1          2.1          3.1          4.1          5.1          6.1          7.1          8.1          9.1
    -26.357215   -11.379312    -1.676355    -0.926291    -0.759553    -0.659137    -0.417424     0.071604     0.082543

         1.2          2.2          3.2
     -0.710201     0.041726     0.123240


 HOMO      7.1    -0.417424 =     -11.3587eV
 LUMO      2.2     0.041726 =       1.1354eV
 LUMO-HOMO         0.459149 =      12.4941eV


 **********************************************************************************************************************************
 DATASETS  * FILE   NREC   LENGTH (MB)   RECORD NAMES
              1      19       42.18       500      610      700      900      950      970     1000      129      960     1100   
                                          VAR    BASINP    GEOM    SYMINP    ZMAT    AOBASIS   BASIS     P2S    ABASIS      S 
                                         1400     1410     1200     1210     1080     1600     1650     1300     1700   
                                           T        V       H0       H01     AOSYM     SMH    MOLCAS    ERIS     OPER   

              2       4        2.84       700     1000      520     2100   
                                         GEOM     BASIS   MCVARS     RHF  

 PROGRAMS   *        TOTAL    HF-SCF       INT
 CPU TIMES  *         1.28      0.28      0.86
 REAL TIME  *         2.96 SEC
 DISK USED  *        74.32 MB
 **********************************************************************************************************************************


 PROGRAM * CCSD (Closed-shell coupled cluster)     Authors: C. Hampel, H.-J. Werner, 1991, M. Deegan, P.J. Knowles, 1992

                                  CCSD-F12 implementation by  H.-J. Werner, 2007

                   Density fitting integral evaluation by F.R. Manby, 2003,2007, G. Knizia, 2010


 Basis set AUG-CC-PVDZ/JKFIT generated.  Number of basis functions:   204 
 Basis set CC-PVDZ-F12/OPTRI generated.  Number of basis functions:   154 
 Basis set AUG-CC-PVDZ/MP2FIT generated. Number of basis functions:   167 

 Convergence thresholds:  THRVAR = 1.00D-16  THRDEN = 1.00D-12

 CCSD(T)     terms to be evaluated (factor= 1.000)


 Number of core orbitals:           2 (   2   0 )
 Number of closed-shell orbitals:   6 (   5   1 )
 Number of external orbitals:      61 (  42  19 )

 Molecular orbitals read from record     2100.2  Type=RHF/CANONICAL (state 1.1)

 MP2-F12 correlation treatment (H.-J. Werner, 2006)
 ==================================================

 Using MP2-F12 with ansatz 3C(FIX)

 Using projected zeroth-order Hamiltonian (+Z)

 FOCKRIB=T FOCKRIC=T FOCKRIP=T CABSP=T CABSA=T CABSK=T CABSF=T GBC=F EBC=F DMAT=T NOFIK=T NOPAO=1 SOLVE=-1  USEPAO=0
 EXCH_A= T EXCH_B= F EXCH_C= F EXCH_P= F

 Geminal basis:    OPTFULL  GEM_TYPE=SLATER  BETA=1.0  NGEM=6

 Optimizing Gaussian exponents for each gem_beta

 Geminal optimization for beta= 1.0000
 Weight function:   m=0, omega= 1.4646

 Augmented Hessian optimization of geminal fit. Trust ratio= 0.40000
 Convergence reached after   2 iterations. Final gradient= 8.66D-16, Step= 4.23D-06, Delta= 1.28D-09

 Alpha:                 0.19532     0.81920     2.85917     9.50073    35.69989   197.79328
 Coeff:                 0.27070     0.30552     0.18297     0.10986     0.06810     0.04224


 Symmetry turned off. Reference energy:       -137.807123925124

 All pairs explicitly correlated. Number of r12-pairs:           21

 Excluding core orbitals from MO domains

 AO(A)-basis ORBITAL           loaded. Number of functions:      69
 RI(R)-basis CC-PVDZ-F12/OPTRI loaded. Number of functions:     154
 DF-basis AUG-CC-PVDZ/JKFIT    loaded. Number of functions:     204

 Screening thresholds:   THRAO=  1.00D-10  THRMO=  1.00D-10  THRPROD=  1.00D-10
                         THRSW=  1.00D-07  THROV=  1.00D-12  THRAOF12= 1.00D-08

 CPU time for Fock operators                      0.92 sec

 Construction of ABS:
 Smallest eigenvalue of S          3.90E-03  (threshold= 1.00E-08)
 Ratio eigmin/eigmax               8.19E-04  (threshold= 1.00E-09)
 Smallest eigenvalue of S kept     3.90E-03  (threshold= 3.90E-03, 0 functions deleted, 154 kept)

 Construction of CABS:
 Smallest eigenvalue of S          1.05E-05  (threshold= 1.00E-08)
 Ratio eigmin/eigmax               1.05E-05  (threshold= 1.00E-09)
 Smallest eigenvalue of S kept     1.05E-05  (threshold= 1.05E-05, 0 functions deleted, 154 kept)

 CPU time for CABS singles                        0.01 sec

 CABS-singles contribution of  -0.00613013 patched into reference energy.
 New reference energy        -137.81325406

 AO(A)-basis ORBITAL           loaded. Number of functions:      69
 RI(R)-basis CC-PVDZ-F12/OPTRI loaded. Number of functions:     154
 DF-basis AUG-CC-PVDZ/MP2FIT   loaded. Number of functions:     167

 Screening thresholds:   THRAO=  1.00D-10  THRMO=  1.00D-10  THRPROD=  1.00D-10
                         THRSW=  1.00D-07  THROV=  1.00D-12  THRAOF12= 1.00D-08

 CPU time for 3-index integral evaluation         0.36 sec
 CPU time for first  half transformation          0.03 sec ( 5065.5 MFLOP/sec)
 CPU time for second half transformation          0.01 sec (  774.3 MFLOP/sec)
 CPU time for sorting                             0.01 sec
 CPU time for assembly                            0.05 sec (15497.6 MFLOP/sec)
 CPU time for tranop_f12                          0.06 sec (17416.6 MFLOP/sec)
 CPU time for f12 integrals (total)               1.26 sec, Elapsed time:      1.32 sec
 CPU time for f12 matrices (total)                0.01 sec, Elapsed time:      0.03 sec

 Diagonal F12 approximation with fixed coefficients:  TSING= 0.500,  TTRIP= 0.250 (scaled by -1/beta)

 DF-MP2-F12 energy corrections:
 ==============================
 Approx.                                    Singlet             Triplet             Total
 DF-MP2-F12/3*C(DX,FIX)                -0.077973804543     -0.016206512518     -0.094180317061
 DF-MP2-F12/3*C(FIX)                   -0.068843501876     -0.015274455652     -0.084117957529
 DF-MP2-F12/3C(FIX)                    -0.069523403446     -0.016057824391     -0.085581227837

 DF-MP2-F12 correlation energies:
 ================================
 Approx.                                    Singlet             Triplet             Ecorr            Total Energy
 DF-MP2                                -0.224856526619     -0.132179427914     -0.357035954533   -138.170290012673
 DF-MP2-F12/3*C(DX,FIX)                -0.302830331162     -0.148385940433     -0.451216271595   -138.264470329735
 DF-MP2-F12/3*C(FIX)                   -0.293700028495     -0.147453883566     -0.441153912062   -138.254407970202
 DF-MP2-F12/3C(FIX)                    -0.294379930065     -0.148237252305     -0.442617182370   -138.255871240510

 SCS-DF-MP2 energies (F_SING= 1.20000  F_TRIP= 0.62222  F_PARALLEL= 0.33333):
 ============================================================================
 SCS-DF-MP2                            -0.352072809312   -138.165326867452
 SCS-DF-MP2-F12/3*C(DX,FIX)            -0.455725426997   -138.268979485137
 SCS-DF-MP2-F12/3*C(FIX)               -0.444189117303   -138.257443175443
 SCS-DF-MP2-F12/3C(FIX)                -0.445492428623   -138.258746486763

 Symmetry restored.
 Symmetry transformation completed.

 Number of N-1 electron functions:               6
 Number of N-2 electron functions:              21
 Number of singly external CSFs:               229
 Number of doubly external CSFs:             35788
 Total number of CSFs:                       36018

 Length of J-op  integral file:              15.24 MB
 Length of K-op  integral file:              18.55 MB
 Length of 3-ext integral record:             0.00 MB

 Memory could be reduced to 1.16 Mwords without degradation in triples

 Integral transformation finished. Total CPU:   0.03 sec, npass=  1  Memory used:   0.52 MW

 Reference energy:                   -137.81325406

 Adding F12 terms to K(Cij), methodcc=6,  factor= 1.0

 ITER.      SQ.NORM     CORR.ENERGY   TOTAL ENERGY   ENERGY CHANGE        DEN1      VAR(S)    VAR(P)  DIIS     TIME  TIME/IT
   1      1.09410052    -0.36357757  -138.17683163    -0.00644503     0.00567968  0.29D-02  0.23D-02  1  1     2.33     0.05
   2      1.10396288    -0.36428949  -138.17754355    -0.00071192    -0.00946272  0.87D-04  0.54D-03  2  2     2.37     0.05
   3      1.11069612    -0.36512685  -138.17838090    -0.00083736    -0.00261621  0.10D-03  0.79D-04  3  3     2.42     0.05
   4      1.11464640    -0.36529585  -138.17854991    -0.00016901    -0.00136416  0.92D-05  0.20D-04  4  4     2.47     0.05
   5      1.11676112    -0.36533957  -138.17859363    -0.00004372    -0.00038098  0.11D-05  0.34D-05  5  5     2.52     0.05
   6      1.11749146    -0.36533140  -138.17858545     0.00000817    -0.00005042  0.70D-07  0.53D-06  6  6     2.56     0.05
   7      1.11763249    -0.36533342  -138.17858748    -0.00000202    -0.00001584  0.48D-07  0.83D-07  6  2     2.61     0.06
   8      1.11763661    -0.36533453  -138.17858859    -0.00000111     0.00000597  0.83D-08  0.14D-07  6  1     2.65     0.06
   9      1.11764018    -0.36533498  -138.17858904    -0.00000045    -0.00000060  0.33D-08  0.24D-08  6  6     2.70     0.06
  10      1.11763512    -0.36533564  -138.17858970    -0.00000066     0.00000159  0.39D-09  0.25D-09  6  3     2.75     0.06
  11      1.11763350    -0.36533583  -138.17858989    -0.00000019     0.00000050  0.29D-10  0.46D-10  6  4     2.80     0.06
  12      1.11763353    -0.36533582  -138.17858988     0.00000001    -0.00000019  0.13D-10  0.55D-11  6  5     2.85     0.06
  13      1.11763336    -0.36533585  -138.17858991    -0.00000003     0.00000008  0.12D-11  0.16D-11  6  2     2.90     0.06
  14      1.11763323    -0.36533585  -138.17858991    -0.00000000    -0.00000003  0.43D-12  0.17D-12  6  5     2.95     0.06
  15      1.11763316    -0.36533586  -138.17858991    -0.00000001     0.00000002  0.17D-13  0.27D-13  6  6     2.99     0.06
  16      1.11763312    -0.36533586  -138.17858991    -0.00000000     0.00000000  0.26D-14  0.20D-14  6  1     3.04     0.06
  17      1.11763311    -0.36533586  -138.17858992    -0.00000000     0.00000000  0.50D-15  0.24D-15  6  3     3.09     0.06
  18      1.11763311    -0.36533586  -138.17858992    -0.00000000     0.00000000  0.12D-15  0.29D-16  6  4     3.14     0.06
  19      1.11763311    -0.36533586  -138.17858992     0.00000000    -0.00000000  0.26D-16  0.61D-17  6  2     3.19     0.06
  20      1.11763311    -0.36533586  -138.17858992     0.00000000    -0.00000000  0.23D-17  0.78D-18  6  5     3.23     0.06
  21      1.11763311    -0.36533586  -138.17858992     0.00000000    -0.00000000  0.23D-18  0.22D-18  6  6     3.28     0.06
  22      1.11763311    -0.36533586  -138.17858992    -0.00000000    -0.00000000  0.26D-19  0.61D-19  6  1     3.33     0.06
  23      1.11763311    -0.36533586  -138.17858992    -0.00000000    -0.00000000  0.18D-20  0.14D-19  6  4     3.38     0.06
  24      1.11763311    -0.36533586  -138.17858992     0.00000000    -0.00000000  0.17D-20  0.26D-20  6  3     3.43     0.06

 Norm of t1 vector:      0.08330306      S-energy:     0.00000000      T1 diagnostic:  0.01700417
                                                                       D1 diagnostic:  0.05024988

 Doubles amplitudes (print threshold =  0.500E-01):

         I         J         SYM. A    SYM. B    A         B      T(IJ, AB)

         5         5         2         2         1         1     -0.05138260

 Adding energy correction from Wij-K(Fij), methodcc=6  factor= 1.0

  CCSD correlation energy              -0.365335857419
  MP2-F12 correction (uncoupled)       -0.080800075722
  C*T doubles correction               -0.002679097272
  f12b correction                       0.010211350896


 Total CPU time for triples:      0.26 sec


 RESULTS
 =======

  Reference energy                   -137.807123925124
  F12 singles correction               -0.006130133016

 F12 singles corrections added to reference energy

  New reference energy               -137.813254058140

  F12a singlet correction              -0.068133481236
  F12a triplet correction              -0.015345691758
  F12a total correction                -0.083479172994

 F12a corrections for ansatz F12/3C(FIX) added to CCSD energy

  CCSD-F12a singlet pair energy        -0.314789484571
  CCSD-F12a triplet pair energy        -0.134025545844
  CCSD-F12a correlation energy         -0.448815030413

  Triples (T) contribution             -0.012707680909
  Total correlation energy             -0.461522711322

  CCSD-F12a total energy             -138.262069088553
  CCSD[T]-F12a energy                -138.275952400166
  CCSD-T-F12a energy                 -138.274377156509
 !CCSD(T)-F12a total energy          -138.274776769462

 F12b corrections for ansatz F12/3C(FIX) added to CCSD(T)-F12a energy

  CCSD-F12b singlet pair energy        -0.305553374310
  CCSD-F12b triplet pair energy        -0.133050305209
  CCSD-F12b correlation energy         -0.438603679517

  Triples (T) contribution             -0.012707680909
  Total correlation energy             -0.451311360426

  CCSD-F12b total energy             -138.251857737657
  CCSD[T]-F12b energy                -138.265741049270
  CCSD-T-F12b energy                 -138.264165805613
 !CCSD(T)-F12b total energy          -138.264565418566

 Timing summary (sec):

 STEP                 CPU(USER)    SYS     CPU(TOT)    WALL
 Transformation          0.03      0.01      0.04      0.04
 CCSD iterations         1.19      0.19      1.38      1.43
 Triples                 0.26      0.00      0.26      0.27
 MP2-F12                 2.22      0.12      2.34      2.64
 F12b energy             0.03      0.00      0.03      0.03

 Program statistics:

 Available memory in ccsd:              1999999744
 Min. memory needed in ccsd:                136839
 Max. memory used in ccsd:                  163083
 Max. memory used in cckext:                208330 (25 integral passes)



 **********************************************************************************************************************************
 DATASETS  * FILE   NREC   LENGTH (MB)   RECORD NAMES
              1      20       45.77       500      610      700      900      950      970     1000      129      960     1100   
                                          VAR    BASINP    GEOM    SYMINP    ZMAT    AOBASIS   BASIS     P2S    ABASIS      S 
                                         1400     1410     1200     1210     1080     1600     1650     1300     1700     1380   
                                           T        V       H0       H01     AOSYM     SMH    MOLCAS    ERIS     OPER     JKOP   

              2       6        2.90       700     1000      520     2100     7360     7350   
                                         GEOM     BASIS   MCVARS     RHF    F12ABS    EF12   

 PROGRAMS   *        TOTAL   CCSD(T)    HF-SCF       INT
 CPU TIMES  *         5.03      3.75      0.28      0.86
 REAL TIME  *         7.41 SEC
 DISK USED  *        97.74 MB
 **********************************************************************************************************************************
 SETTING EE(1)          =      -138.26456542  AU                              


 Computing numerical gradient using default procedure for command CCSD(T)-F12

 *** Long output written to logfile /home/mdavis/f12eom_optimizer/tests/slurm/molpro_step.log ***


 Running default procedure: HF-SCF000  CCSD(T)-F12


 Generated   3 symmetrical displacements

 Numerical gradient for CCSD(T)-F12

 Total Energy          -138.26456542  Dipole moments:    0.000000    0.000000    0.000000

 Atom          dE/dx               dE/dy               dE/dz                  d2E/dx2             d2E/dy2             d2E/dz2
   1        -0.015517337        -0.000555614         0.000000000            0.000000000         0.000000000         0.000000000
   2         0.023298964         0.005725045        -0.000000000            0.000000000         0.000000000         0.000000000
   3        -0.007781628        -0.005169431         0.000000000            0.000000000         0.000000000         0.000000000

 Recomputing wavefunction at initial geometry


 **********************************************************************************************************************************
 DATASETS  * FILE   NREC   LENGTH (MB)   RECORD NAMES
              1      21       45.99       500      610      700      900      701      950      970     1000      129      960   
                                          VAR    BASINP    GEOM    SYMINP    GEOM     ZMAT    AOBASIS   BASIS     P2S    ABASIS    
                                         1100     1400     1410     1200     1210     1080     1600     1650     1300     1700   
                                           S        T        V       H0       H01     AOSYM     SMH    MOLCAS    ERIS     OPER   
                                         1380   
                                         JKOP   

              2       8        3.12       700     1000      520     2100     7360     7350      701     5600   
                                         GEOM     BASIS   MCVARS     RHF    F12ABS    EF12     GEOM     GINFO   

 PROGRAMS   *        TOTAL    FORCES    HF-SCF       INT   CCSD(T)    HF-SCF       INT
 CPU TIMES  *        41.30      3.85      0.04     32.37      3.75      0.28      0.86
 REAL TIME  *        51.55 SEC
 DISK USED  *       100.73 MB
 **********************************************************************************************************************************
 EE(1)            =     -138.264565418566 AU
 GRADX(1:3)       = [     -0.015517336627    0.023298964155   -0.007781627528] AU
 GRADY(1:3)       = [     -0.000555613772    0.005725045079   -0.005169431307] AU
 GRADZ(1:3)       = [      0.000000000000   -0.000000000000    0.000000000000] AU

 CCSD(T)-F12/cc-pVDZ-F12 energy=   -138.264565418566

     CCSD(T)-F12          HF-SCF     CCSD(T)-F12          HF-SCF
   -138.26456542   -137.80712393   -138.26456542   -137.80712393
 **********************************************************************************************************************************
 Molpro calculation terminated
