
 Primary working directories    : /scratch/mdavis/molpro_step_2022-08-17_21_47_47/molpro.3CFBYChrFs
 Secondary working directories  : /scratch/mdavis/molpro_step_2022-08-17_21_47_47/molpro.3CFBYChrFs
 Wavefunction directory         : /home/mdavis/f12eom_optimizer/tests/slurm/./
 Main file repository           : /scratch/mdavis/molpro_step_2022-08-17_21_47_47/molpro.3CFBYChrFs/

 id        : olemiss

 Nodes     nprocs
 node17       1

 Using customized tuning parameters: mindgm=1; mindgv=20; mindgc=4; mindgr=1; noblas=0; minvec=7
 default implementation of scratch files=df  


 Variables initialized (945), CPU time= 0.01 sec
 ***,part of geometry opt run
 memory, 2000.0, m;
 gthresh,energy=1.d-12,zero=1.d-22,oneint=1.d-22,twoint=1.d-22;
 gthresh,optgrad=1.d-8,optstep=1.d-8;
 nocompress;
 bohr;
 geometry={
      3
 Fragment 1
     H  -1.5929999385   1.7214856928   0.0000000000
     C   0.4354708841   0.9998102689   0.0000000000
     F   0.2788817890  -1.4010161117   0.0000000000
      }
 
 set,charge=0
 set,spin=0
 basis=vdz-f12
 hf,maxit=500;wf,charge=0,spin=0;accu,20;
 ccsd(t)-f12,maxit=250;wf,charge=0,spin=0;orbital,IGNORE_ERROR;
 ee(1)=energy(2)
 forces,varsav
 SHOW[f18.12],ee(1)
 SHOW[f18.12],GRADX
 SHOW[f18.12],GRADY
 SHOW[f18.12],GRADZ
 Commands  initialized (802), CPU time= 0.00 sec, 659 directives.
 Default parameters read. Elapsed time= 0.55 sec

 Checking input...
 Passed
1


                                         ***  PROGRAM SYSTEM MOLPRO  ***
                                       Copyright, TTI GmbH Stuttgart, 2015
                                    Version 2020.1 linked Oct  6 2020 12:04:11


 **********************************************************************************************************************************
 LABEL *   part of geometry opt run                                                      
  64 bit serial version                                                                  DATE: 17-Aug-22          TIME: 21:49:07  
 **********************************************************************************************************************************

 SHA1:             8c27446f6450a7499e38f603e13c65f775101d37
 **********************************************************************************************************************************

 Memory per process:      2000 MW
 Total memory per node:   2000 MW

 GA preallocation disabled
 GA check disabled

 Variable memory set to 2000.0 MW


 THRESHOLDS:

 ZERO    =  1.00D-22  ONEINT  =  1.00D-22  TWOINT  =  1.00D-22  PREFAC  =  1.00D-14  XXXXXX  =  1.00D-09  EORDER  =  1.00D-04
 ENERGY  =  1.00D-12  ETEST   =  0.00D+00  EDENS   =  0.00D+00  THRDEDEF=  1.00D-06  GRADIENT=  1.00D-05  STEP    =  1.00D-03
 ORBITAL =  1.00D-05  CIVEC   =  1.00D-05  COEFF   =  1.00D-04  PRINTCI =  5.00D-02  PUNCHCI =  9.90D+01  OPTGRAD =  3.00D-04
 OPTENERG=  1.00D-06  OPTSTEP =  3.00D-04  THRGRAD =  1.00D-10  COMPRESS=  1.00D-11  VARMIN  =  1.00D-07  VARMAX  =  1.00D-03
 THRDOUB =  0.00D+00  THRDIV  =  1.00D-05  THRRED  =  1.00D-07  THRPSP  =  1.00D+00  THRDC   =  1.00D-10  THRCS   =  1.00D-10
 THRNRM  =  1.00D-08  THREQ   =  0.00D+00  THRDE   =  1.00D+00  THRREF  =  1.00D-05  SPARFAC =  1.00D+00  THRDLP  =  1.00D-07
 THRDIA  =  1.00D-10  THRDLS  =  1.00D-07  THRGPS  =  0.00D+00  THRKEX  =  0.00D+00  THRDIS  =  2.00D-01  THRVAR  =  1.00D-10
 THRLOC  =  1.00D-06  THRGAP  =  1.00D-06  THRLOCT = -1.00D+00  THRGAPT = -1.00D+00  THRORB  =  1.00D-06  THRMLTP =  0.00D+00
 THRCPQCI=  1.00D-10  KEXTA   =  0.00D+00  THRCOARS=  0.00D+00  SYMTOL  =  1.00D-06  GRADTOL =  1.00D-06  THROVL  =  1.00D-08
 THRORTH =  1.00D-08  GRID    =  1.00D-06  GRIDMAX =  1.00D-03  DTMAX   =  0.00D+00  THROCCDE=  1.00D-01  THROCCDE=  1.00D-01
 THRPRINT=  2.50D-01


 THRESHOLDS:

 ZERO    =  1.00D-22  ONEINT  =  1.00D-22  TWOINT  =  1.00D-22  PREFAC  =  1.00D-14  XXXXXX  =  1.00D-09  EORDER  =  1.00D-04
 ENERGY  =  1.00D-12  ETEST   =  0.00D+00  EDENS   =  0.00D+00  THRDEDEF=  1.00D-06  GRADIENT=  1.00D-05  STEP    =  1.00D-03
 ORBITAL =  1.00D-05  CIVEC   =  1.00D-05  COEFF   =  1.00D-04  PRINTCI =  5.00D-02  PUNCHCI =  9.90D+01  OPTGRAD =  1.00D-08
 OPTENERG=  1.00D-06  OPTSTEP =  1.00D-08  THRGRAD =  1.00D-10  COMPRESS=  1.00D-11  VARMIN  =  1.00D-07  VARMAX  =  1.00D-03
 THRDOUB =  0.00D+00  THRDIV  =  1.00D-05  THRRED  =  1.00D-07  THRPSP  =  1.00D+00  THRDC   =  1.00D-10  THRCS   =  1.00D-10
 THRNRM  =  1.00D-08  THREQ   =  0.00D+00  THRDE   =  1.00D+00  THRREF  =  1.00D-05  SPARFAC =  1.00D+00  THRDLP  =  1.00D-07
 THRDIA  =  1.00D-10  THRDLS  =  1.00D-07  THRGPS  =  0.00D+00  THRKEX  =  0.00D+00  THRDIS  =  2.00D-01  THRVAR  =  1.00D-10
 THRLOC  =  1.00D-06  THRGAP  =  1.00D-06  THRLOCT = -1.00D+00  THRGAPT = -1.00D+00  THRORB  =  1.00D-06  THRMLTP =  0.00D+00
 THRCPQCI=  1.00D-10  KEXTA   =  0.00D+00  THRCOARS=  0.00D+00  SYMTOL  =  1.00D-06  GRADTOL =  1.00D-06  THROVL  =  1.00D-08
 THRORTH =  1.00D-08  GRID    =  1.00D-06  GRIDMAX =  1.00D-03  DTMAX   =  0.00D+00  THROCCDE=  1.00D-01  THROCCDE=  1.00D-01
 THRPRINT=  2.50D-01


 Input parameters for SORTINT:

 COMPRESS =    0.000000
 C_FINAL  =    1.000000
 DEBUG    =   -1.000000
 C_SORT1  =    0.000000
 C_SEWARD =    0.000000
 THRESH   =    0.000000
 IO       =  molpro                                                                                                                          
 SPRI     =    0.000000
 ZUNIT=BOHR


 Geometry recognized as XYZ

 SETTING CHARGE         =     0.00000000D+00                                  
 SETTING SPIN           =     0.00000000D+00                                  
 SETTING BASIS          =    VDZ-F12


 Recomputing integrals since basis changed


 Using spherical harmonics

 Library entry H      S cc-pVDZ-F12          selected for orbital group  1
 Library entry H      P cc-pVDZ-F12          selected for orbital group  1
 Library entry C      S cc-pVDZ-F12          selected for orbital group  2
 Library entry C      P cc-pVDZ-F12          selected for orbital group  2
 Library entry C      D cc-pVDZ-F12          selected for orbital group  2
 Library entry F      S cc-pVDZ-F12          selected for orbital group  3
 Library entry F      P cc-pVDZ-F12          selected for orbital group  3
 Library entry F      D cc-pVDZ-F12          selected for orbital group  3


 PROGRAM * SEWARD (Integral evaluation for generally contracted gaussian basis sets)     Author: Roland Lindh, 1990

 Geometry written to block  1 of record 700


 Point group  Cs  



 ATOMIC COORDINATES

 NR  ATOM    CHARGE       X              Y              Z

   1  H       1.00   -1.592999938    1.721485693    0.000000000
   2  C       6.00    0.435470884    0.999810269    0.000000000
   3  F       9.00    0.278881789   -1.401016112    0.000000000

 Bond lengths in Bohr (Angstrom)

 1-2  2.153023292  2-3  2.405927566
     ( 1.139330861)     ( 1.273162039)

 Bond angles

  1-2-3  105.85247544

 NUCLEAR CHARGE:                   16
 NUMBER OF PRIMITIVE AOS:          93
 NUMBER OF SYMMETRY AOS:           89
 NUMBER OF CONTRACTIONS:           69   (   49A'  +   20A"  )
 NUMBER OF INNER CORE ORBITALS:     0   (    0A'  +    0A"  )
 NUMBER OF OUTER CORE ORBITALS:     2   (    2A'  +    0A"  )
 NUMBER OF VALENCE ORBITALS:        9   (    7A'  +    2A"  )


 NUCLEAR REPULSION ENERGY   27.70346581

 Eigenvalues of metric

         1 0.152E-02 0.302E-02 0.323E-02 0.331E-02 0.413E-02 0.468E-02 0.471E-02 0.916E-02
         2 0.330E-02 0.468E-02 0.785E-01 0.930E-01 0.137E+00 0.169E+00 0.245E+00 0.383E+00


 Contracted 2-electron integrals neglected if value below      1.0D-22

        1426049. INTEGRALS WRITTEN OUT IN     349 BLOCKS ON RECORD 1290 OF FILE 1


 NUMBER OF SORTED TWO-ELECTRON INTEGRALS:    1544830.     BUFFER LENGTH:  32768
 NUMBER OF SEGMENTS:   1  SEGMENT LENGTH:    1544830      RECORD LENGTH: 524288

 Memory used in sort:       2.10 MW

 SORT1 READ     1426049. AND WROTE     1455925. INTEGRALS IN      5 RECORDS. CPU TIME:     0.02 SEC, REAL TIME:     0.04 SEC
 SORT2 READ     1455925. AND WROTE     1544830. INTEGRALS IN      1 RECORDS. CPU TIME:     0.04 SEC, REAL TIME:     0.06 SEC

 FILE SIZES:   FILE 1:    53.0 MBYTE,  FILE 4:    21.0 MBYTE,   TOTAL:     74.0 MBYTE

 OPERATOR DM      FOR CENTER  0  COORDINATES:    0.000000    0.000000    0.000000


 **********************************************************************************************************************************
 DATASETS  * FILE   NREC   LENGTH (MB)   RECORD NAMES
              1      19       42.18       500      610      700      900      950      970     1000      129      960     1100   
                                          VAR    BASINP    GEOM    SYMINP    ZMAT    AOBASIS   BASIS     P2S    ABASIS      S 
                                         1400     1410     1200     1210     1080     1600     1650     1300     1700   
                                           T        V       H0       H01     AOSYM     SMH    MOLCAS    ERIS     OPER   

 PROGRAMS   *        TOTAL       INT
 CPU TIMES  *         1.07      0.94
 REAL TIME  *         3.06 SEC
 DISK USED  *        74.32 MB
 **********************************************************************************************************************************


 PROGRAM * RHF-SCF (CLOSED SHELL)       Authors: W. Meyer, H.-J. Werner


 NUMBER OF ELECTRONS:       8+    8-
 CONVERGENCE THRESHOLDS:    1.00E-10 (Density)    1.00E-13 (Energy)
 MAX. NUMBER OF ITERATIONS:      500
 INTERPOLATION TYPE:            DIIS
 INTERPOLATION STEPS:              2 (START)      1 (STEP)
 LEVEL SHIFTS:                  0.00 (CLOSED)  0.00 (OPEN) 



 Orbital guess generated from atomic densities. Full valence occupancy:    9   2

 Molecular orbital dump at record        2100.2

 Initial occupancy:   7   1

 ITERATION    DDIFF          GRAD             ENERGY        2-EL.EN.            DIPOLE MOMENTS         DIIS   ORB.
    1      0.000D+00      0.000D+00      -137.78049945    157.878999   -0.69087   -0.07897    0.00000    0    start
    2      0.000D+00      0.101D-01      -137.80580444    159.056589   -0.65554   -0.09581    0.00000    1    diag
    3      0.137D-01      0.348D-02      -137.80849458    159.259052   -0.62705    0.00773    0.00000    2    diag
    4      0.377D-02      0.110D-02      -137.80878961    159.072930   -0.62416    0.00404    0.00000    3    diag
    5      0.108D-02      0.317D-03      -137.80883822    159.141554   -0.62362    0.01538    0.00000    4    diag
    6      0.403D-03      0.747D-04      -137.80884322    159.141914   -0.62293    0.01777    0.00000    5    diag
    7      0.141D-03      0.241D-04      -137.80884371    159.142467   -0.62300    0.01801    0.00000    6    diag
    8      0.529D-04      0.506D-05      -137.80884373    159.142296   -0.62300    0.01794    0.00000    7    diag
    9      0.111D-04      0.929D-06      -137.80884373    159.142316   -0.62301    0.01791    0.00000    8    diag
   10      0.213D-05      0.197D-06      -137.80884373    159.142313   -0.62301    0.01790    0.00000    9    orth
   11      0.544D-06      0.496D-07      -137.80884373    159.142311   -0.62301    0.01790    0.00000    9    diag
   12      0.139D-06      0.104D-07      -137.80884373    159.142311   -0.62301    0.01790    0.00000    9    diag
   13      0.227D-07      0.240D-08      -137.80884373    159.142311   -0.62301    0.01790    0.00000    9    diag
   14      0.519D-08      0.626D-09      -137.80884373    159.142311   -0.62301    0.01790    0.00000    9    diag
   15      0.142D-08      0.133D-09      -137.80884373    159.142311   -0.62301    0.01790    0.00000    9    diag
   16      0.175D-09      0.403D-10      -137.80884373    159.142311   -0.62301    0.01790    0.00000    9    diag
   17      0.679D-10      0.714D-11      -137.80884373    159.142311   -0.62301    0.01790    0.00000    0    orth

 Final occupancy:   7   1

 !RHF STATE  1.1 Energy              -137.808843732624
 Nuclear energy                        27.70346581
 One-electron energy                 -245.08346520
 Two-electron energy                   79.57115565
 Virial quotient                       -1.00053540
 !RHF STATE  1.1 Dipole moment         -0.62301459     0.01789504     0.00000000
 Dipole moment /Debye                  -1.58344143     0.04548166     0.00000000

 Orbital energies:

         1.1          2.1          3.1          4.1          5.1          6.1          7.1          8.1          9.1
    -26.371651   -11.367441    -1.707524    -0.937517    -0.780322    -0.676353    -0.399004     0.070406     0.082638

         1.2          2.2          3.2
     -0.730765     0.047187     0.127880


 HOMO      7.1    -0.399004 =     -10.8575eV
 LUMO      2.2     0.047187 =       1.2840eV
 LUMO-HOMO         0.446191 =      12.1415eV


 **********************************************************************************************************************************
 DATASETS  * FILE   NREC   LENGTH (MB)   RECORD NAMES
              1      19       42.18       500      610      700      900      950      970     1000      129      960     1100   
                                          VAR    BASINP    GEOM    SYMINP    ZMAT    AOBASIS   BASIS     P2S    ABASIS      S 
                                         1400     1410     1200     1210     1080     1600     1650     1300     1700   
                                           T        V       H0       H01     AOSYM     SMH    MOLCAS    ERIS     OPER   

              2       4        2.84       700     1000      520     2100   
                                         GEOM     BASIS   MCVARS     RHF  

 PROGRAMS   *        TOTAL    HF-SCF       INT
 CPU TIMES  *         1.34      0.27      0.94
 REAL TIME  *         3.37 SEC
 DISK USED  *        74.32 MB
 **********************************************************************************************************************************


 PROGRAM * CCSD (Closed-shell coupled cluster)     Authors: C. Hampel, H.-J. Werner, 1991, M. Deegan, P.J. Knowles, 1992

                                  CCSD-F12 implementation by  H.-J. Werner, 2007

                   Density fitting integral evaluation by F.R. Manby, 2003,2007, G. Knizia, 2010


 Basis set AUG-CC-PVDZ/JKFIT generated.  Number of basis functions:   204 
 Basis set CC-PVDZ-F12/OPTRI generated.  Number of basis functions:   154 
 Basis set AUG-CC-PVDZ/MP2FIT generated. Number of basis functions:   167 

 Convergence thresholds:  THRVAR = 1.00D-16  THRDEN = 1.00D-12

 CCSD(T)     terms to be evaluated (factor= 1.000)


 Number of core orbitals:           2 (   2   0 )
 Number of closed-shell orbitals:   6 (   5   1 )
 Number of external orbitals:      61 (  42  19 )

 Molecular orbitals read from record     2100.2  Type=RHF/CANONICAL (state 1.1)

 MP2-F12 correlation treatment (H.-J. Werner, 2006)
 ==================================================

 Using MP2-F12 with ansatz 3C(FIX)

 Using projected zeroth-order Hamiltonian (+Z)

 FOCKRIB=T FOCKRIC=T FOCKRIP=T CABSP=T CABSA=T CABSK=T CABSF=T GBC=F EBC=F DMAT=T NOFIK=T NOPAO=1 SOLVE=-1  USEPAO=0
 EXCH_A= T EXCH_B= F EXCH_C= F EXCH_P= F

 Geminal basis:    OPTFULL  GEM_TYPE=SLATER  BETA=1.0  NGEM=6

 Optimizing Gaussian exponents for each gem_beta

 Geminal optimization for beta= 1.0000
 Weight function:   m=0, omega= 1.4646

 Augmented Hessian optimization of geminal fit. Trust ratio= 0.40000
 Convergence reached after   2 iterations. Final gradient= 8.66D-16, Step= 4.23D-06, Delta= 1.28D-09

 Alpha:                 0.19532     0.81920     2.85917     9.50073    35.69989   197.79328
 Coeff:                 0.27070     0.30552     0.18297     0.10986     0.06810     0.04224


 Symmetry turned off. Reference energy:       -137.808843732624

 All pairs explicitly correlated. Number of r12-pairs:           21

 Excluding core orbitals from MO domains

 AO(A)-basis ORBITAL           loaded. Number of functions:      69
 RI(R)-basis CC-PVDZ-F12/OPTRI loaded. Number of functions:     154
 DF-basis AUG-CC-PVDZ/JKFIT    loaded. Number of functions:     204

 Screening thresholds:   THRAO=  1.00D-10  THRMO=  1.00D-10  THRPROD=  1.00D-10
                         THRSW=  1.00D-07  THROV=  1.00D-12  THRAOF12= 1.00D-08

 CPU time for Fock operators                      0.90 sec

 Construction of ABS:
 Smallest eigenvalue of S          3.66E-03  (threshold= 1.00E-08)
 Ratio eigmin/eigmax               7.71E-04  (threshold= 1.00E-09)
 Smallest eigenvalue of S kept     3.66E-03  (threshold= 3.66E-03, 0 functions deleted, 154 kept)

 Construction of CABS:
 Smallest eigenvalue of S          9.82E-06  (threshold= 1.00E-08)
 Ratio eigmin/eigmax               9.82E-06  (threshold= 1.00E-09)
 Smallest eigenvalue of S kept     9.82E-06  (threshold= 9.82E-06, 0 functions deleted, 154 kept)

 CPU time for CABS singles                        0.01 sec

 CABS-singles contribution of  -0.00655281 patched into reference energy.
 New reference energy        -137.81539654

 AO(A)-basis ORBITAL           loaded. Number of functions:      69
 RI(R)-basis CC-PVDZ-F12/OPTRI loaded. Number of functions:     154
 DF-basis AUG-CC-PVDZ/MP2FIT   loaded. Number of functions:     167

 Screening thresholds:   THRAO=  1.00D-10  THRMO=  1.00D-10  THRPROD=  1.00D-10
                         THRSW=  1.00D-07  THROV=  1.00D-12  THRAOF12= 1.00D-08

 CPU time for 3-index integral evaluation         0.41 sec
 CPU time for first  half transformation          0.01 sec (15196.5 MFLOP/sec)
 CPU time for tilde quantities                    0.01 sec (10307.8 MFLOP/sec)
 CPU time for assembly                            0.03 sec (25829.3 MFLOP/sec)
 CPU time for tranop_f12                          0.03 sec (34833.1 MFLOP/sec)
 CPU time for f12 integrals (total)               1.16 sec, Elapsed time:      1.26 sec
 CPU time for f12 matrices (total)                0.02 sec, Elapsed time:      0.02 sec

 Diagonal F12 approximation with fixed coefficients:  TSING= 0.500,  TTRIP= 0.250 (scaled by -1/beta)

 DF-MP2-F12 energy corrections:
 ==============================
 Approx.                                    Singlet             Triplet             Total
 DF-MP2-F12/3*C(DX,FIX)                -0.078260330500     -0.016330612855     -0.094590943355
 DF-MP2-F12/3*C(FIX)                   -0.068974247408     -0.015347539167     -0.084321786575
 DF-MP2-F12/3C(FIX)                    -0.069665295163     -0.016147415093     -0.085812710256

 DF-MP2-F12 correlation energies:
 ================================
 Approx.                                    Singlet             Triplet             Ecorr            Total Energy
 DF-MP2                                -0.222986329652     -0.131468821769     -0.354455151421   -138.169851692176
 DF-MP2-F12/3*C(DX,FIX)                -0.301246660153     -0.147799434624     -0.449046094776   -138.264442635531
 DF-MP2-F12/3*C(FIX)                   -0.291960577060     -0.146816360936     -0.438776937996   -138.254173478751
 DF-MP2-F12/3C(FIX)                    -0.292651624816     -0.147616236861     -0.440267861677   -138.255664402432

 SCS-DF-MP2 energies (F_SING= 1.20000  F_TRIP= 0.62222  F_PARALLEL= 0.33333):
 ============================================================================
 SCS-DF-MP2                            -0.349386418017   -138.164782958772
 SCS-DF-MP2-F12/3*C(DX,FIX)            -0.453460084838   -138.268856625593
 SCS-DF-MP2-F12/3*C(FIX)               -0.441705094832   -138.257101635587
 SCS-DF-MP2-F12/3C(FIX)                -0.443032052715   -138.258428593470

 Symmetry restored.
 Symmetry transformation completed.

 Number of N-1 electron functions:               6
 Number of N-2 electron functions:              21
 Number of singly external CSFs:               229
 Number of doubly external CSFs:             35788
 Total number of CSFs:                       36018

 Length of J-op  integral file:              15.24 MB
 Length of K-op  integral file:              18.55 MB
 Length of 3-ext integral record:             0.00 MB

 Memory could be reduced to 1.16 Mwords without degradation in triples

 Integral transformation finished. Total CPU:   0.03 sec, npass=  1  Memory used:   0.52 MW

 Reference energy:                   -137.81539654

 Adding F12 terms to K(Cij), methodcc=6,  factor= 1.0

 ITER.      SQ.NORM     CORR.ENERGY   TOTAL ENERGY   ENERGY CHANGE        DEN1      VAR(S)    VAR(P)  DIIS     TIME  TIME/IT
   1      1.09186453    -0.36108108  -138.17647762    -0.00653103     0.00483727  0.25D-02  0.21D-02  1  1     2.22     0.07
   2      1.10117548    -0.36182654  -138.17722308    -0.00074546    -0.00896927  0.77D-04  0.50D-03  2  2     2.27     0.06
   3      1.10739871    -0.36259755  -138.17799409    -0.00077102    -0.00247295  0.83D-04  0.78D-04  3  3     2.32     0.06
   4      1.11111007    -0.36277829  -138.17817483    -0.00018073    -0.00127878  0.65D-05  0.21D-04  4  4     2.38     0.06
   5      1.11305633    -0.36282416  -138.17822070    -0.00004587    -0.00033639  0.73D-06  0.38D-05  5  5     2.42     0.06
   6      1.11377761    -0.36282027  -138.17821681     0.00000389    -0.00005028  0.12D-06  0.61D-06  6  6     2.48     0.06
   7      1.11392834    -0.36282475  -138.17822129    -0.00000448    -0.00001385  0.67D-07  0.81D-07  6  2     2.53     0.06
   8      1.11393485    -0.36282622  -138.17822276    -0.00000147     0.00000570  0.90D-08  0.13D-07  6  1     2.58     0.06
   9      1.11394150    -0.36282675  -138.17822329    -0.00000053    -0.00000174  0.30D-08  0.16D-08  6  3     2.63     0.06
  10      1.11393777    -0.36282725  -138.17822379    -0.00000050     0.00000201  0.30D-09  0.25D-09  6  4     2.68     0.06
  11      1.11393619    -0.36282731  -138.17822385    -0.00000006     0.00000043  0.84D-10  0.27D-10  6  5     2.73     0.06
  12      1.11393534    -0.36282738  -138.17822392    -0.00000007     0.00000035  0.10D-10  0.62D-11  6  6     2.78     0.06
  13      1.11393490    -0.36282738  -138.17822392    -0.00000001     0.00000006  0.24D-11  0.13D-11  6  2     2.83     0.06
  14      1.11393461    -0.36282739  -138.17822393    -0.00000001     0.00000005  0.24D-12  0.46D-12  6  1     2.89     0.17
  15      1.11393444    -0.36282740  -138.17822394    -0.00000000     0.00000002  0.24D-13  0.15D-12  6  3     2.94     0.16
  16      1.11393435    -0.36282740  -138.17822394    -0.00000000     0.00000001  0.53D-14  0.44D-13  6  4     2.99     0.15
  17      1.11393429    -0.36282740  -138.17822394    -0.00000000     0.00000001  0.47D-14  0.73D-14  6  5     3.04     0.15
  18      1.11393427    -0.36282740  -138.17822394     0.00000000     0.00000000  0.78D-15  0.10D-14  6  6     3.08     0.14
  19      1.11393427    -0.36282740  -138.17822394    -0.00000000     0.00000000  0.13D-15  0.14D-15  6  1     3.14     0.14
  20      1.11393427    -0.36282740  -138.17822394     0.00000000    -0.00000000  0.61D-17  0.87D-17  6  5     3.19     0.13
  21      1.11393427    -0.36282740  -138.17822394    -0.00000000     0.00000000  0.10D-17  0.70D-18  6  2     3.24     0.13
  22      1.11393427    -0.36282740  -138.17822394    -0.00000000     0.00000000  0.20D-18  0.90D-19  6  3     3.29     0.13
  23      1.11393427    -0.36282740  -138.17822394    -0.00000000     0.00000000  0.55D-19  0.13D-19  6  4     3.34     0.12
  24      1.11393427    -0.36282740  -138.17822394    -0.00000000     0.00000000  0.12D-19  0.38D-20  6  6     3.39     0.27
  25      1.11393427    -0.36282740  -138.17822394     0.00000000    -0.00000000  0.13D-20  0.77D-21  6  1     3.44     0.26

 Norm of t1 vector:      0.07691526      S-energy:     0.00000000      T1 diagnostic:  0.01570026
                                                                       D1 diagnostic:  0.04564096

 Adding energy correction from Wij-K(Fij), methodcc=6  factor= 1.0

  CCSD correlation energy              -0.362827395737
  MP2-F12 correction (uncoupled)       -0.080947960670
  C*T doubles correction               -0.002727128039
  f12b correction                       0.010131357827


 Total CPU time for triples:      0.27 sec


 RESULTS
 =======

  Reference energy                   -137.808843732624
  F12 singles correction               -0.006552808131

 F12 singles corrections added to reference energy

  New reference energy               -137.815396540755

  F12a singlet correction              -0.068256648427
  F12a triplet correction              -0.015418440282
  F12a total correction                -0.083675088709

 F12a corrections for ansatz F12/3C(FIX) added to CCSD energy

  CCSD-F12a singlet pair energy        -0.312585031233
  CCSD-F12a triplet pair energy        -0.133917453213
  CCSD-F12a correlation energy         -0.446502484445

  Triples (T) contribution             -0.012228564028
  Total correlation energy             -0.458731048473

  CCSD-F12a total energy             -138.261899025200
  CCSD[T]-F12a energy                -138.275141679506
  CCSD-T-F12a energy                 -138.273783097380
 !CCSD(T)-F12a total energy          -138.274127589228

 F12b corrections for ansatz F12/3C(FIX) added to CCSD(T)-F12a energy

  CCSD-F12b singlet pair energy        -0.303427586304
  CCSD-F12b triplet pair energy        -0.132943540315
  CCSD-F12b correlation energy         -0.436371126619

  Triples (T) contribution             -0.012228564028
  Total correlation energy             -0.448599690646

  CCSD-F12b total energy             -138.251767667374
  CCSD[T]-F12b energy                -138.265010321680
  CCSD-T-F12b energy                 -138.263651739553
 !CCSD(T)-F12b total energy          -138.263996231401

 Timing summary (sec):

 STEP                 CPU(USER)    SYS     CPU(TOT)    WALL
 Transformation          0.03      0.02      0.05      0.05
 CCSD iterations         1.31      0.11      1.42      6.48
 Triples                 0.27      0.00      0.27      0.27
 MP2-F12                 2.11      0.11      2.22      3.30
 F12b energy             0.02      0.01      0.03      0.04

 Program statistics:

 Available memory in ccsd:              1999999744
 Min. memory needed in ccsd:                136839
 Max. memory used in ccsd:                  163083
 Max. memory used in cckext:                208330 (26 integral passes)



 **********************************************************************************************************************************
 DATASETS  * FILE   NREC   LENGTH (MB)   RECORD NAMES
              1      20       45.77       500      610      700      900      950      970     1000      129      960     1100   
                                          VAR    BASINP    GEOM    SYMINP    ZMAT    AOBASIS   BASIS     P2S    ABASIS      S 
                                         1400     1410     1200     1210     1080     1600     1650     1300     1700     1380   
                                           T        V       H0       H01     AOSYM     SMH    MOLCAS    ERIS     OPER     JKOP   

              2       6        2.90       700     1000      520     2100     7360     7350   
                                         GEOM     BASIS   MCVARS     RHF    F12ABS    EF12   

 PROGRAMS   *        TOTAL   CCSD(T)    HF-SCF       INT
 CPU TIMES  *         5.11      3.77      0.27      0.94
 REAL TIME  *        13.55 SEC
 DISK USED  *        97.74 MB
 **********************************************************************************************************************************
 SETTING EE(1)          =      -138.26399623  AU                              


 Computing numerical gradient using default procedure for command CCSD(T)-F12

 *** Long output written to logfile /home/mdavis/f12eom_optimizer/tests/slurm/molpro_step.log ***


 Running default procedure: HF-SCF000  CCSD(T)-F12


 Generated   3 symmetrical displacements

 Numerical gradient for CCSD(T)-F12

 Total Energy          -138.26399623  Dipole moments:    0.000000    0.000000    0.000000

 Atom          dE/dx               dE/dy               dE/dz                  d2E/dx2             d2E/dy2             d2E/dz2
   1        -0.005430854         0.008989785         0.000000000            0.000000000         0.000000000         0.000000000
   2        -0.002304676        -0.036165768         0.000000000            0.000000000         0.000000000         0.000000000
   3         0.007735530         0.027175982         0.000000000            0.000000000         0.000000000         0.000000000

 Recomputing wavefunction at initial geometry


 **********************************************************************************************************************************
 DATASETS  * FILE   NREC   LENGTH (MB)   RECORD NAMES
              1      21       45.99       500      610      700      900      701      950      970     1000      129      960   
                                          VAR    BASINP    GEOM    SYMINP    GEOM     ZMAT    AOBASIS   BASIS     P2S    ABASIS    
                                         1100     1400     1410     1200     1210     1080     1600     1650     1300     1700   
                                           S        T        V       H0       H01     AOSYM     SMH    MOLCAS    ERIS     OPER   
                                         1380   
                                         JKOP   

              2       8        3.12       700     1000      520     2100     7360     7350      701     5600   
                                         GEOM     BASIS   MCVARS     RHF    F12ABS    EF12     GEOM     GINFO   

 PROGRAMS   *        TOTAL    FORCES    HF-SCF       INT   CCSD(T)    HF-SCF       INT
 CPU TIMES  *        40.46      3.78      0.03     31.53      3.77      0.27      0.94
 REAL TIME  *        59.93 SEC
 DISK USED  *       100.73 MB
 **********************************************************************************************************************************
 EE(1)            =     -138.263996231402 AU
 GRADX(1:3)       = [     -0.005430854145   -0.002304676329    0.007735530474] AU
 GRADY(1:3)       = [      0.008989785273   -0.036165767529    0.027175982256] AU
 GRADZ(1:3)       = [      0.000000000000    0.000000000000    0.000000000000] AU

 CCSD(T)-F12/cc-pVDZ-F12 energy=   -138.263996231402

     CCSD(T)-F12          HF-SCF     CCSD(T)-F12          HF-SCF
   -138.26399623   -137.80884373   -138.26399623   -137.80884373
 **********************************************************************************************************************************
 Molpro calculation terminated
