
 Primary working directories    : /scratch/mdavis/molpro_step_2022-08-17_17_59_06/molpro.c3ukrV1tFE
 Secondary working directories  : /scratch/mdavis/molpro_step_2022-08-17_17_59_06/molpro.c3ukrV1tFE
 Wavefunction directory         : /home/mdavis/f12eom_optimizer/tests/slurm/./
 Main file repository           : /scratch/mdavis/molpro_step_2022-08-17_17_59_06/molpro.c3ukrV1tFE/

 id        : olemiss

 Nodes     nprocs
 node17       1

 Using customized tuning parameters: mindgm=1; mindgv=20; mindgc=4; mindgr=1; noblas=0; minvec=7
 default implementation of scratch files=df  


 Variables initialized (945), CPU time= 0.01 sec
 ***,part of geometry opt run
 memory, 2000.0, m;
 gthresh,energy=1.d-12,zero=1.d-22,oneint=1.d-22,twoint=1.d-22;
 gthresh,optgrad=1.d-8,optstep=1.d-8;
 nocompress;
 bohr;
 geometry={
      3
 Fragment 1
     H  -1.6048302986   1.6832469921   0.0000000000
     C   0.4894623800   1.1282165463   0.0000000000
     F   0.2367206532  -1.4911836885   0.0000000000
      }
 
 set,charge=0
 set,spin=0
 basis=vdz-f12
 hf,maxit=500;wf,charge=0,spin=0;accu,20;
 ccsd(t)-f12,maxit=250;wf,charge=0,spin=0;orbital,IGNORE_ERROR;
 ee(1)=energy(2)
 forces,varsav
 SHOW[f18.12],ee(1)
 SHOW[f18.12],GRADX
 SHOW[f18.12],GRADY
 SHOW[f18.12],GRADZ
 Commands  initialized (802), CPU time= 0.00 sec, 659 directives.
 Default parameters read. Elapsed time= 0.11 sec

 Checking input...
 Passed
1


                                         ***  PROGRAM SYSTEM MOLPRO  ***
                                       Copyright, TTI GmbH Stuttgart, 2015
                                    Version 2020.1 linked Oct  6 2020 12:04:11


 **********************************************************************************************************************************
 LABEL *   part of geometry opt run                                                      
  64 bit serial version                                                                  DATE: 17-Aug-22          TIME: 17:59:07  
 **********************************************************************************************************************************

 SHA1:             8c27446f6450a7499e38f603e13c65f775101d37
 **********************************************************************************************************************************

 Memory per process:      2000 MW
 Total memory per node:   2000 MW

 GA preallocation disabled
 GA check disabled

 Variable memory set to 2000.0 MW


 THRESHOLDS:

 ZERO    =  1.00D-22  ONEINT  =  1.00D-22  TWOINT  =  1.00D-22  PREFAC  =  1.00D-14  XXXXXX  =  1.00D-09  EORDER  =  1.00D-04
 ENERGY  =  1.00D-12  ETEST   =  0.00D+00  EDENS   =  0.00D+00  THRDEDEF=  1.00D-06  GRADIENT=  1.00D-05  STEP    =  1.00D-03
 ORBITAL =  1.00D-05  CIVEC   =  1.00D-05  COEFF   =  1.00D-04  PRINTCI =  5.00D-02  PUNCHCI =  9.90D+01  OPTGRAD =  3.00D-04
 OPTENERG=  1.00D-06  OPTSTEP =  3.00D-04  THRGRAD =  1.00D-10  COMPRESS=  1.00D-11  VARMIN  =  1.00D-07  VARMAX  =  1.00D-03
 THRDOUB =  0.00D+00  THRDIV  =  1.00D-05  THRRED  =  1.00D-07  THRPSP  =  1.00D+00  THRDC   =  1.00D-10  THRCS   =  1.00D-10
 THRNRM  =  1.00D-08  THREQ   =  0.00D+00  THRDE   =  1.00D+00  THRREF  =  1.00D-05  SPARFAC =  1.00D+00  THRDLP  =  1.00D-07
 THRDIA  =  1.00D-10  THRDLS  =  1.00D-07  THRGPS  =  0.00D+00  THRKEX  =  0.00D+00  THRDIS  =  2.00D-01  THRVAR  =  1.00D-10
 THRLOC  =  1.00D-06  THRGAP  =  1.00D-06  THRLOCT = -1.00D+00  THRGAPT = -1.00D+00  THRORB  =  1.00D-06  THRMLTP =  0.00D+00
 THRCPQCI=  1.00D-10  KEXTA   =  0.00D+00  THRCOARS=  0.00D+00  SYMTOL  =  1.00D-06  GRADTOL =  1.00D-06  THROVL  =  1.00D-08
 THRORTH =  1.00D-08  GRID    =  1.00D-06  GRIDMAX =  1.00D-03  DTMAX   =  0.00D+00  THROCCDE=  1.00D-01  THROCCDE=  1.00D-01
 THRPRINT=  2.50D-01


 THRESHOLDS:

 ZERO    =  1.00D-22  ONEINT  =  1.00D-22  TWOINT  =  1.00D-22  PREFAC  =  1.00D-14  XXXXXX  =  1.00D-09  EORDER  =  1.00D-04
 ENERGY  =  1.00D-12  ETEST   =  0.00D+00  EDENS   =  0.00D+00  THRDEDEF=  1.00D-06  GRADIENT=  1.00D-05  STEP    =  1.00D-03
 ORBITAL =  1.00D-05  CIVEC   =  1.00D-05  COEFF   =  1.00D-04  PRINTCI =  5.00D-02  PUNCHCI =  9.90D+01  OPTGRAD =  1.00D-08
 OPTENERG=  1.00D-06  OPTSTEP =  1.00D-08  THRGRAD =  1.00D-10  COMPRESS=  1.00D-11  VARMIN  =  1.00D-07  VARMAX  =  1.00D-03
 THRDOUB =  0.00D+00  THRDIV  =  1.00D-05  THRRED  =  1.00D-07  THRPSP  =  1.00D+00  THRDC   =  1.00D-10  THRCS   =  1.00D-10
 THRNRM  =  1.00D-08  THREQ   =  0.00D+00  THRDE   =  1.00D+00  THRREF  =  1.00D-05  SPARFAC =  1.00D+00  THRDLP  =  1.00D-07
 THRDIA  =  1.00D-10  THRDLS  =  1.00D-07  THRGPS  =  0.00D+00  THRKEX  =  0.00D+00  THRDIS  =  2.00D-01  THRVAR  =  1.00D-10
 THRLOC  =  1.00D-06  THRGAP  =  1.00D-06  THRLOCT = -1.00D+00  THRGAPT = -1.00D+00  THRORB  =  1.00D-06  THRMLTP =  0.00D+00
 THRCPQCI=  1.00D-10  KEXTA   =  0.00D+00  THRCOARS=  0.00D+00  SYMTOL  =  1.00D-06  GRADTOL =  1.00D-06  THROVL  =  1.00D-08
 THRORTH =  1.00D-08  GRID    =  1.00D-06  GRIDMAX =  1.00D-03  DTMAX   =  0.00D+00  THROCCDE=  1.00D-01  THROCCDE=  1.00D-01
 THRPRINT=  2.50D-01


 Input parameters for SORTINT:

 COMPRESS =    0.000000
 C_FINAL  =    1.000000
 DEBUG    =   -1.000000
 C_SORT1  =    0.000000
 C_SEWARD =    0.000000
 THRESH   =    0.000000
 IO       =  molpro                                                                                                                          
 SPRI     =    0.000000
 ZUNIT=BOHR


 Geometry recognized as XYZ

 SETTING CHARGE         =     0.00000000D+00                                  
 SETTING SPIN           =     0.00000000D+00                                  
 SETTING BASIS          =    VDZ-F12


 Recomputing integrals since basis changed


 Using spherical harmonics

 Library entry H      S cc-pVDZ-F12          selected for orbital group  1
 Library entry H      P cc-pVDZ-F12          selected for orbital group  1
 Library entry C      S cc-pVDZ-F12          selected for orbital group  2
 Library entry C      P cc-pVDZ-F12          selected for orbital group  2
 Library entry C      D cc-pVDZ-F12          selected for orbital group  2
 Library entry F      S cc-pVDZ-F12          selected for orbital group  3
 Library entry F      P cc-pVDZ-F12          selected for orbital group  3
 Library entry F      D cc-pVDZ-F12          selected for orbital group  3


 PROGRAM * SEWARD (Integral evaluation for generally contracted gaussian basis sets)     Author: Roland Lindh, 1990

 Geometry written to block  1 of record 700


 Point group  Cs  



 ATOMIC COORDINATES

 NR  ATOM    CHARGE       X              Y              Z

   1  H       1.00   -1.604830299    1.683246992    0.000000000
   2  C       6.00    0.489462380    1.128216546    0.000000000
   3  F       9.00    0.236720653   -1.491183689    0.000000000

 Bond lengths in Bohr (Angstrom)

 1-2  2.166591937  2-3  2.631565308
     ( 1.146511078)     ( 1.392564390)

 Bond angles

  1-2-3   99.33200670

 NUCLEAR CHARGE:                   16
 NUMBER OF PRIMITIVE AOS:          93
 NUMBER OF SYMMETRY AOS:           89
 NUMBER OF CONTRACTIONS:           69   (   49A'  +   20A"  )
 NUMBER OF INNER CORE ORBITALS:     0   (    0A'  +    0A"  )
 NUMBER OF OUTER CORE ORBITALS:     2   (    2A'  +    0A"  )
 NUMBER OF VALENCE ORBITALS:        9   (    7A'  +    2A"  )


 NUCLEAR REPULSION ENERGY   25.74180151

 Eigenvalues of metric

         1 0.210E-02 0.323E-02 0.328E-02 0.402E-02 0.435E-02 0.468E-02 0.476E-02 0.985E-02
         2 0.330E-02 0.469E-02 0.881E-01 0.982E-01 0.143E+00 0.190E+00 0.258E+00 0.394E+00


 Contracted 2-electron integrals neglected if value below      1.0D-22

        1426049. INTEGRALS WRITTEN OUT IN     349 BLOCKS ON RECORD 1290 OF FILE 1


 NUMBER OF SORTED TWO-ELECTRON INTEGRALS:    1544830.     BUFFER LENGTH:  32768
 NUMBER OF SEGMENTS:   1  SEGMENT LENGTH:    1544830      RECORD LENGTH: 524288

 Memory used in sort:       2.10 MW

 SORT1 READ     1426049. AND WROTE     1455925. INTEGRALS IN      5 RECORDS. CPU TIME:     0.03 SEC, REAL TIME:     0.04 SEC
 SORT2 READ     1455925. AND WROTE     1544830. INTEGRALS IN      1 RECORDS. CPU TIME:     0.06 SEC, REAL TIME:     0.07 SEC

 FILE SIZES:   FILE 1:    53.0 MBYTE,  FILE 4:    21.0 MBYTE,   TOTAL:     74.0 MBYTE

 OPERATOR DM      FOR CENTER  0  COORDINATES:    0.000000    0.000000    0.000000


 **********************************************************************************************************************************
 DATASETS  * FILE   NREC   LENGTH (MB)   RECORD NAMES
              1      19       42.18       500      610      700      900      950      970     1000      129      960     1100   
                                          VAR    BASINP    GEOM    SYMINP    ZMAT    AOBASIS   BASIS     P2S    ABASIS      S 
                                         1400     1410     1200     1210     1080     1600     1650     1300     1700   
                                           T        V       H0       H01     AOSYM     SMH    MOLCAS    ERIS     OPER   

 PROGRAMS   *        TOTAL       INT
 CPU TIMES  *         1.02      0.90
 REAL TIME  *         2.64 SEC
 DISK USED  *        74.32 MB
 **********************************************************************************************************************************


 PROGRAM * RHF-SCF (CLOSED SHELL)       Authors: W. Meyer, H.-J. Werner


 NUMBER OF ELECTRONS:       8+    8-
 CONVERGENCE THRESHOLDS:    1.00E-10 (Density)    1.00E-13 (Energy)
 MAX. NUMBER OF ITERATIONS:      500
 INTERPOLATION TYPE:            DIIS
 INTERPOLATION STEPS:              2 (START)      1 (STEP)
 LEVEL SHIFTS:                  0.00 (CLOSED)  0.00 (OPEN) 



 Orbital guess generated from atomic densities. Full valence occupancy:    9   2

 Molecular orbital dump at record        2100.2

 Initial occupancy:   7   1

 ITERATION    DDIFF          GRAD             ENERGY        2-EL.EN.            DIPOLE MOMENTS         DIIS   ORB.
    1      0.000D+00      0.000D+00      -137.76426760    155.168775   -0.64287    0.35847    0.00000    0    start
    2      0.000D+00      0.114D-01      -137.79393655    155.369414   -0.65081    0.13099    0.00000    1    diag
    3      0.170D-01      0.576D-02      -137.80048683    156.176954   -0.60741    0.30826    0.00000    2    diag
    4      0.553D-02      0.149D-02      -137.80097143    155.896719   -0.60126    0.30064    0.00000    3    diag
    5      0.126D-02      0.299D-03      -137.80103943    155.947073   -0.60006    0.31052    0.00000    4    diag
    6      0.481D-03      0.858D-04      -137.80104738    155.949135   -0.59922    0.31250    0.00000    5    diag
    7      0.171D-03      0.299D-04      -137.80104834    155.949244   -0.59930    0.31227    0.00000    6    diag
    8      0.747D-04      0.651D-05      -137.80104838    155.949059   -0.59929    0.31201    0.00000    7    diag
    9      0.165D-04      0.139D-05      -137.80104838    155.949066   -0.59931    0.31193    0.00000    8    diag
   10      0.311D-05      0.344D-06      -137.80104838    155.949054   -0.59931    0.31191    0.00000    9    orth
   11      0.940D-06      0.818D-07      -137.80104838    155.949053   -0.59931    0.31191    0.00000    9    diag
   12      0.223D-06      0.176D-07      -137.80104838    155.949052   -0.59931    0.31191    0.00000    9    diag
   13      0.419D-07      0.470D-08      -137.80104838    155.949053   -0.59931    0.31191    0.00000    9    diag
   14      0.117D-07      0.145D-08      -137.80104838    155.949052   -0.59931    0.31191    0.00000    9    diag
   15      0.263D-08      0.252D-09      -137.80104838    155.949052   -0.59931    0.31191    0.00000    9    diag
   16      0.378D-09      0.630D-10      -137.80104838    155.949052   -0.59931    0.31191    0.00000    9    diag
   17      0.127D-09      0.144D-10      -137.80104838    155.949052   -0.59931    0.31191    0.00000    9    diag
   18      0.350D-10      0.272D-11      -137.80104838    155.949052   -0.59931    0.31191    0.00000    9    diag
   19      0.737D-11      0.645D-12      -137.80104838    155.949052   -0.59931    0.31191    0.00000    0    orth

 Final occupancy:   7   1

 !RHF STATE  1.1 Energy              -137.801048381543
 Nuclear energy                        25.74180151
 One-electron energy                 -241.51737611
 Two-electron energy                   77.97452622
 Virial quotient                       -1.00206528
 !RHF STATE  1.1 Dipole moment         -0.59931015     0.31190984     0.00000000
 Dipole moment /Debye                  -1.52319469     0.79274381     0.00000000

 Orbital energies:

         1.1          2.1          3.1          4.1          5.1          6.1          7.1          8.1          9.1
    -26.340665   -11.392179    -1.637055    -0.913296    -0.732006    -0.652981    -0.430597     0.070563     0.081881

         1.2          2.2          3.2
     -0.685382     0.033265     0.118189


 HOMO      7.1    -0.430597 =     -11.7172eV
 LUMO      2.2     0.033265 =       0.9052eV
 LUMO-HOMO         0.463862 =      12.6223eV


 **********************************************************************************************************************************
 DATASETS  * FILE   NREC   LENGTH (MB)   RECORD NAMES
              1      19       42.18       500      610      700      900      950      970     1000      129      960     1100   
                                          VAR    BASINP    GEOM    SYMINP    ZMAT    AOBASIS   BASIS     P2S    ABASIS      S 
                                         1400     1410     1200     1210     1080     1600     1650     1300     1700   
                                           T        V       H0       H01     AOSYM     SMH    MOLCAS    ERIS     OPER   

              2       4        2.84       700     1000      520     2100   
                                         GEOM     BASIS   MCVARS     RHF  

 PROGRAMS   *        TOTAL    HF-SCF       INT
 CPU TIMES  *         1.29      0.27      0.90
 REAL TIME  *         3.00 SEC
 DISK USED  *        74.32 MB
 **********************************************************************************************************************************


 PROGRAM * CCSD (Closed-shell coupled cluster)     Authors: C. Hampel, H.-J. Werner, 1991, M. Deegan, P.J. Knowles, 1992

                                  CCSD-F12 implementation by  H.-J. Werner, 2007

                   Density fitting integral evaluation by F.R. Manby, 2003,2007, G. Knizia, 2010


 Basis set AUG-CC-PVDZ/JKFIT generated.  Number of basis functions:   204 
 Basis set CC-PVDZ-F12/OPTRI generated.  Number of basis functions:   154 
 Basis set AUG-CC-PVDZ/MP2FIT generated. Number of basis functions:   167 

 Convergence thresholds:  THRVAR = 1.00D-16  THRDEN = 1.00D-12

 CCSD(T)     terms to be evaluated (factor= 1.000)


 Number of core orbitals:           2 (   2   0 )
 Number of closed-shell orbitals:   6 (   5   1 )
 Number of external orbitals:      61 (  42  19 )

 Molecular orbitals read from record     2100.2  Type=RHF/CANONICAL (state 1.1)

 MP2-F12 correlation treatment (H.-J. Werner, 2006)
 ==================================================

 Using MP2-F12 with ansatz 3C(FIX)

 Using projected zeroth-order Hamiltonian (+Z)

 FOCKRIB=T FOCKRIC=T FOCKRIP=T CABSP=T CABSA=T CABSK=T CABSF=T GBC=F EBC=F DMAT=T NOFIK=T NOPAO=1 SOLVE=-1  USEPAO=0
 EXCH_A= T EXCH_B= F EXCH_C= F EXCH_P= F

 Geminal basis:    OPTFULL  GEM_TYPE=SLATER  BETA=1.0  NGEM=6

 Optimizing Gaussian exponents for each gem_beta

 Geminal optimization for beta= 1.0000
 Weight function:   m=0, omega= 1.4646

 Augmented Hessian optimization of geminal fit. Trust ratio= 0.40000
 Convergence reached after   2 iterations. Final gradient= 8.66D-16, Step= 4.23D-06, Delta= 1.28D-09

 Alpha:                 0.19532     0.81920     2.85917     9.50073    35.69989   197.79328
 Coeff:                 0.27070     0.30552     0.18297     0.10986     0.06810     0.04224


 Symmetry turned off. Reference energy:       -137.801048381543

 All pairs explicitly correlated. Number of r12-pairs:           21

 Excluding core orbitals from MO domains

 AO(A)-basis ORBITAL           loaded. Number of functions:      69
 RI(R)-basis CC-PVDZ-F12/OPTRI loaded. Number of functions:     154
 DF-basis AUG-CC-PVDZ/JKFIT    loaded. Number of functions:     204

 Screening thresholds:   THRAO=  1.00D-10  THRMO=  1.00D-10  THRPROD=  1.00D-10
                         THRSW=  1.00D-07  THROV=  1.00D-12  THRAOF12= 1.00D-08

 CPU time for Fock operators                      0.90 sec

 Construction of ABS:
 Smallest eigenvalue of S          3.96E-03  (threshold= 1.00E-08)
 Ratio eigmin/eigmax               8.45E-04  (threshold= 1.00E-09)
 Smallest eigenvalue of S kept     3.96E-03  (threshold= 3.96E-03, 0 functions deleted, 154 kept)

 Construction of CABS:
 Smallest eigenvalue of S          1.13E-05  (threshold= 1.00E-08)
 Ratio eigmin/eigmax               1.13E-05  (threshold= 1.00E-09)
 Smallest eigenvalue of S kept     1.13E-05  (threshold= 1.13E-05, 0 functions deleted, 154 kept)

 CPU time for CABS singles                        0.00 sec

 CABS-singles contribution of  -0.00572903 patched into reference energy.
 New reference energy        -137.80677741

 AO(A)-basis ORBITAL           loaded. Number of functions:      69
 RI(R)-basis CC-PVDZ-F12/OPTRI loaded. Number of functions:     154
 DF-basis AUG-CC-PVDZ/MP2FIT   loaded. Number of functions:     167

 Screening thresholds:   THRAO=  1.00D-10  THRMO=  1.00D-10  THRPROD=  1.00D-10
                         THRSW=  1.00D-07  THROV=  1.00D-12  THRAOF12= 1.00D-08

 CPU time for 3-index integral evaluation         0.40 sec
 CPU time for first  half transformation          0.02 sec ( 7598.3 MFLOP/sec)
 CPU time for second half transformation          0.01 sec (  774.3 MFLOP/sec)
 CPU time for sorting                             0.01 sec
 CPU time for assembly                            0.05 sec (15497.6 MFLOP/sec)
 CPU time for tranop_f12                          0.06 sec (17416.6 MFLOP/sec)
 CPU time for f12 integrals (total)               1.20 sec, Elapsed time:      1.28 sec
 CPU time for f12 matrices (total)                0.02 sec, Elapsed time:      0.02 sec

 Diagonal F12 approximation with fixed coefficients:  TSING= 0.500,  TTRIP= 0.250 (scaled by -1/beta)

 DF-MP2-F12 energy corrections:
 ==============================
 Approx.                                    Singlet             Triplet             Total
 DF-MP2-F12/3*C(DX,FIX)                -0.077599548945     -0.015956907188     -0.093556456133
 DF-MP2-F12/3*C(FIX)                   -0.068692180625     -0.015071583185     -0.083763763811
 DF-MP2-F12/3C(FIX)                    -0.069345987023     -0.015824761115     -0.085170748138

 DF-MP2-F12 correlation energies:
 ================================
 Approx.                                    Singlet             Triplet             Ecorr            Total Energy
 DF-MP2                                -0.226912618335     -0.132831586674     -0.359744205009   -138.166521617116
 DF-MP2-F12/3*C(DX,FIX)                -0.304512167280     -0.148788493863     -0.453300661142   -138.260078073250
 DF-MP2-F12/3*C(FIX)                   -0.295604798960     -0.147903169860     -0.443507968819   -138.250285380927
 DF-MP2-F12/3C(FIX)                    -0.296258605357     -0.148656347790     -0.444914953147   -138.251692365254

 SCS-DF-MP2 energies (F_SING= 1.20000  F_TRIP= 0.62222  F_PARALLEL= 0.33333):
 ============================================================================
 SCS-DF-MP2                            -0.354945907043   -138.161723319151
 SCS-DF-MP2-F12/3*C(DX,FIX)            -0.457994108028   -138.264771520135
 SCS-DF-MP2-F12/3*C(FIX)               -0.446754397775   -138.253531809883
 SCS-DF-MP2-F12/3C(FIX)                -0.448007609498   -138.254785021605

 Symmetry restored.
 Symmetry transformation completed.

 Number of N-1 electron functions:               6
 Number of N-2 electron functions:              21
 Number of singly external CSFs:               229
 Number of doubly external CSFs:             35788
 Total number of CSFs:                       36018

 Length of J-op  integral file:              15.24 MB
 Length of K-op  integral file:              18.55 MB
 Length of 3-ext integral record:             0.00 MB

 Memory could be reduced to 1.16 Mwords without degradation in triples

 Integral transformation finished. Total CPU:   0.03 sec, npass=  1  Memory used:   0.52 MW

 Reference energy:                   -137.80677741

 Adding F12 terms to K(Cij), methodcc=6,  factor= 1.0

 ITER.      SQ.NORM     CORR.ENERGY   TOTAL ENERGY   ENERGY CHANGE        DEN1      VAR(S)    VAR(P)  DIIS     TIME  TIME/IT
   1      1.09655717    -0.36603964  -138.17281705    -0.00619425     0.00690524  0.33D-02  0.26D-02  1  1     2.25     0.05
   2      1.10709291    -0.36666486  -138.17344228    -0.00062523    -0.01007045  0.96D-04  0.62D-03  2  2     2.30     0.05
   3      1.11454786    -0.36761707  -138.17439448    -0.00095220    -0.00276173  0.14D-03  0.90D-04  3  3     2.35     0.05
   4      1.11903567    -0.36779452  -138.17457193    -0.00017745    -0.00150430  0.15D-04  0.25D-04  4  4     2.39     0.05
   5      1.12172762    -0.36784803  -138.17462545    -0.00005352    -0.00048460  0.21D-05  0.40D-05  5  5     2.44     0.05
   6      1.12268727    -0.36783766  -138.17461508     0.00001037    -0.00006340  0.10D-06  0.62D-06  6  6     2.48     0.05
   7      1.12288093    -0.36783800  -138.17461541    -0.00000034    -0.00002378  0.38D-07  0.12D-06  6  4     2.51     0.05
   8      1.12289355    -0.36783852  -138.17461593    -0.00000052     0.00000616  0.10D-07  0.19D-07  6  1     2.56     0.05
   9      1.12289459    -0.36783938  -138.17461679    -0.00000086     0.00000128  0.31D-08  0.25D-08  6  2     2.61     0.05
  10      1.12289208    -0.36783980  -138.17461721    -0.00000042     0.00000020  0.51D-09  0.45D-09  6  3     2.67     0.05
  11      1.12289079    -0.36783989  -138.17461730    -0.00000009     0.00000014  0.17D-09  0.68D-10  6  5     2.71     0.05
  12      1.12288967    -0.36784003  -138.17461744    -0.00000014     0.00000019  0.21D-10  0.15D-10  6  6     2.76     0.05
  13      1.12288852    -0.36784007  -138.17461749    -0.00000004     0.00000013  0.52D-11  0.22D-11  6  1     2.81     0.05
  14      1.12288791    -0.36784011  -138.17461752    -0.00000004     0.00000013  0.34D-12  0.37D-12  6  4     2.86     0.05
  15      1.12288774    -0.36784012  -138.17461753    -0.00000001     0.00000002  0.74D-13  0.93D-13  6  2     2.91     0.05
  16      1.12288764    -0.36784012  -138.17461753    -0.00000000     0.00000002  0.74D-14  0.15D-13  6  3     2.95     0.05
  17      1.12288761    -0.36784012  -138.17461753    -0.00000000     0.00000000  0.13D-14  0.19D-14  6  5     3.00     0.05
  18      1.12288761    -0.36784012  -138.17461753     0.00000000    -0.00000000  0.39D-15  0.37D-15  6  6     3.06     0.05
  19      1.12288761    -0.36784012  -138.17461753     0.00000000    -0.00000000  0.15D-15  0.93D-16  6  1     3.11     0.05
  20      1.12288761    -0.36784012  -138.17461753     0.00000000    -0.00000000  0.24D-16  0.21D-16  6  4     3.16     0.05
  21      1.12288761    -0.36784012  -138.17461753     0.00000000     0.00000000  0.81D-17  0.41D-17  6  2     3.21     0.05
  22      1.12288761    -0.36784012  -138.17461753     0.00000000    -0.00000000  0.60D-18  0.75D-18  6  5     3.25     0.05
  23      1.12288761    -0.36784012  -138.17461753     0.00000000     0.00000000  0.10D-18  0.37D-19  6  3     3.30     0.05
  24      1.12288761    -0.36784012  -138.17461753     0.00000000    -0.00000000  0.33D-19  0.84D-20  6  6     3.35     0.05
  25      1.12288761    -0.36784012  -138.17461753     0.00000000    -0.00000000  0.46D-20  0.18D-20  6  1     3.40     0.05
  26      1.12288761    -0.36784012  -138.17461753     0.00000000    -0.00000000  0.11D-20  0.26D-21  6  4     3.45     0.05
  27      1.12288761    -0.36784012  -138.17461753    -0.00000000     0.00000000  0.12D-21  0.50D-22  6  2     3.50     0.05

 Norm of t1 vector:      0.09208130      S-energy:     0.00000000      T1 diagnostic:  0.01879602
                                                                       D1 diagnostic:  0.05631324

 Doubles amplitudes (print threshold =  0.500E-01):

         I         J         SYM. A    SYM. B    A         B      T(IJ, AB)

         5         5         2         2         1         1     -0.05971590

 Adding energy correction from Wij-K(Fij), methodcc=6  factor= 1.0

  CCSD correlation energy              -0.367840120706
  MP2-F12 correction (uncoupled)       -0.080542520551
  C*T doubles correction               -0.002590789447
  f12b correction                       0.010329444234


 Total CPU time for triples:      0.27 sec


 RESULTS
 =======

  Reference energy                   -137.801048381543
  F12 singles correction               -0.005729030565

 F12 singles corrections added to reference energy

  New reference energy               -137.806777412108

  F12a singlet correction              -0.067991931996
  F12a triplet correction              -0.015141378002
  F12a total correction                -0.083133309998

 F12a corrections for ansatz F12/3C(FIX) added to CCSD energy

  CCSD-F12a singlet pair energy        -0.317179670404
  CCSD-F12a triplet pair energy        -0.133793760301
  CCSD-F12a correlation energy         -0.450973430704

  Triples (T) contribution             -0.013359875414
  Total correlation energy             -0.464333306118

  CCSD-F12a total energy             -138.257750842812
  CCSD[T]-F12a energy                -138.272526550984
  CCSD-T-F12a energy                 -138.270629893047
 !CCSD(T)-F12a total energy          -138.271110718226

 F12b corrections for ansatz F12/3C(FIX) added to CCSD(T)-F12a energy

  CCSD-F12b singlet pair energy        -0.307824673531
  CCSD-F12b triplet pair energy        -0.132819312940
  CCSD-F12b correlation energy         -0.440643986470

  Triples (T) contribution             -0.013359875414
  Total correlation energy             -0.454003861884

  CCSD-F12b total energy             -138.247421398578
  CCSD[T]-F12b energy                -138.262197106750
  CCSD-T-F12b energy                 -138.260300448813
 !CCSD(T)-F12b total energy          -138.260781273992

 Timing summary (sec):

 STEP                 CPU(USER)    SYS     CPU(TOT)    WALL
 Transformation          0.03      0.02      0.05      0.05
 CCSD iterations         1.33      0.17      1.50      1.52
 Triples                 0.27      0.01      0.28      0.28
 MP2-F12                 2.14      0.11      2.25      2.66
 F12b energy             0.03      0.00      0.03      0.03

 Program statistics:

 Available memory in ccsd:              1999999744
 Min. memory needed in ccsd:                136839
 Max. memory used in ccsd:                  163083
 Max. memory used in cckext:                208330 (28 integral passes)



 **********************************************************************************************************************************
 DATASETS  * FILE   NREC   LENGTH (MB)   RECORD NAMES
              1      20       45.77       500      610      700      900      950      970     1000      129      960     1100   
                                          VAR    BASINP    GEOM    SYMINP    ZMAT    AOBASIS   BASIS     P2S    ABASIS      S 
                                         1400     1410     1200     1210     1080     1600     1650     1300     1700     1380   
                                           T        V       H0       H01     AOSYM     SMH    MOLCAS    ERIS     OPER     JKOP   

              2       6        2.90       700     1000      520     2100     7360     7350   
                                         GEOM     BASIS   MCVARS     RHF    F12ABS    EF12   

 PROGRAMS   *        TOTAL   CCSD(T)    HF-SCF       INT
 CPU TIMES  *         5.12      3.83      0.27      0.90
 REAL TIME  *         7.56 SEC
 DISK USED  *        97.74 MB
 **********************************************************************************************************************************
 SETTING EE(1)          =      -138.26078127  AU                              


 Computing numerical gradient using default procedure for command CCSD(T)-F12

 *** Long output written to logfile /home/mdavis/f12eom_optimizer/tests/slurm/molpro_step.log ***


 Running default procedure: HF-SCF000  CCSD(T)-F12


 Generated   3 symmetrical displacements

 Numerical gradient for CCSD(T)-F12

 Total Energy          -138.26078127  Dipole moments:    0.000000    0.000000    0.000000

 Atom          dE/dx               dE/dy               dE/dz                  d2E/dx2             d2E/dy2             d2E/dz2
   1        -0.014622814         0.002757612         0.000000000            0.000000000         0.000000000         0.000000000
   2         0.020258288         0.046386238        -0.000000000            0.000000000         0.000000000         0.000000000
   3        -0.005635474        -0.049143850         0.000000000            0.000000000         0.000000000         0.000000000

 Recomputing wavefunction at initial geometry


 **********************************************************************************************************************************
 DATASETS  * FILE   NREC   LENGTH (MB)   RECORD NAMES
              1      21       45.99       500      610      700      900      701      950      970     1000      129      960   
                                          VAR    BASINP    GEOM    SYMINP    GEOM     ZMAT    AOBASIS   BASIS     P2S    ABASIS    
                                         1100     1400     1410     1200     1210     1080     1600     1650     1300     1700   
                                           S        T        V       H0       H01     AOSYM     SMH    MOLCAS    ERIS     OPER   
                                         1380   
                                         JKOP   

              2       8        3.12       700     1000      520     2100     7360     7350      701     5600   
                                         GEOM     BASIS   MCVARS     RHF    F12ABS    EF12     GEOM     GINFO   

 PROGRAMS   *        TOTAL    FORCES    HF-SCF       INT   CCSD(T)    HF-SCF       INT
 CPU TIMES  *        41.20      3.84      0.04     32.20      3.83      0.27      0.90
 REAL TIME  *        51.28 SEC
 DISK USED  *       100.73 MB
 **********************************************************************************************************************************
 EE(1)            =     -138.260781273992 AU
 GRADX(1:3)       = [     -0.014622813752    0.020258288021   -0.005635474269] AU
 GRADY(1:3)       = [      0.002757611566    0.046386238396   -0.049143849962] AU
 GRADZ(1:3)       = [      0.000000000000   -0.000000000000    0.000000000000] AU

 CCSD(T)-F12/cc-pVDZ-F12 energy=   -138.260781273992

     CCSD(T)-F12          HF-SCF     CCSD(T)-F12          HF-SCF
   -138.26078127   -137.80104838   -138.26078127   -137.80104838
 **********************************************************************************************************************************
 Molpro calculation terminated
