
 Primary working directories    : /scratch/mdavis/molpro_step_2022-08-17_16_07_50/molpro.VyNbZFxoar
 Secondary working directories  : /scratch/mdavis/molpro_step_2022-08-17_16_07_50/molpro.VyNbZFxoar
 Wavefunction directory         : /home/mdavis/f12eom_optimizer/tests/slurm/./
 Main file repository           : /scratch/mdavis/molpro_step_2022-08-17_16_07_50/molpro.VyNbZFxoar/

 id        : olemiss

 Nodes     nprocs
 node17       1

 Using customized tuning parameters: mindgm=1; mindgv=20; mindgc=4; mindgr=1; noblas=0; minvec=7
 default implementation of scratch files=df  


 Variables initialized (945), CPU time= 0.01 sec
 ***,part of geometry opt run
 memory, 2000.0, m;
 gthresh,energy=1.d-12,zero=1.d-22,oneint=1.d-22,twoint=1.d-22;
 gthresh,optgrad=1.d-8,optstep=1.d-8;
 nocompress;
 bohr;
 geometry={
      3
 Fragment 1
     H  -1.1471212801   1.8502738772   0.0000000000
     C   0.4751814722   1.0239835050   0.0000000000
     F  -0.0144482480  -1.2161813929   0.0000000000
      }
 
 set,charge=0
 set,spin=0
 basis=vdz-f12
 hf,maxit=500;wf,charge=0,spin=0;accu,20;
 ccsd(t)-f12,maxit=250;wf,charge=0,spin=0;orbital,IGNORE_ERROR;
 ee(1)=energy(2)
 forces,varsav
 SHOW[f18.12],ee(1)
 SHOW[f18.12],GRADX
 SHOW[f18.12],GRADY
 SHOW[f18.12],GRADZ
 Commands  initialized (802), CPU time= 0.00 sec, 659 directives.
 Default parameters read. Elapsed time= 0.10 sec

 Checking input...
 Passed
1


                                         ***  PROGRAM SYSTEM MOLPRO  ***
                                       Copyright, TTI GmbH Stuttgart, 2015
                                    Version 2020.1 linked Oct  6 2020 12:04:11


 **********************************************************************************************************************************
 LABEL *   part of geometry opt run                                                      
  64 bit serial version                                                                  DATE: 17-Aug-22          TIME: 16:07:51  
 **********************************************************************************************************************************

 SHA1:             8c27446f6450a7499e38f603e13c65f775101d37
 **********************************************************************************************************************************

 Memory per process:      2000 MW
 Total memory per node:   2000 MW

 GA preallocation disabled
 GA check disabled

 Variable memory set to 2000.0 MW


 THRESHOLDS:

 ZERO    =  1.00D-22  ONEINT  =  1.00D-22  TWOINT  =  1.00D-22  PREFAC  =  1.00D-14  XXXXXX  =  1.00D-09  EORDER  =  1.00D-04
 ENERGY  =  1.00D-12  ETEST   =  0.00D+00  EDENS   =  0.00D+00  THRDEDEF=  1.00D-06  GRADIENT=  1.00D-05  STEP    =  1.00D-03
 ORBITAL =  1.00D-05  CIVEC   =  1.00D-05  COEFF   =  1.00D-04  PRINTCI =  5.00D-02  PUNCHCI =  9.90D+01  OPTGRAD =  3.00D-04
 OPTENERG=  1.00D-06  OPTSTEP =  3.00D-04  THRGRAD =  1.00D-10  COMPRESS=  1.00D-11  VARMIN  =  1.00D-07  VARMAX  =  1.00D-03
 THRDOUB =  0.00D+00  THRDIV  =  1.00D-05  THRRED  =  1.00D-07  THRPSP  =  1.00D+00  THRDC   =  1.00D-10  THRCS   =  1.00D-10
 THRNRM  =  1.00D-08  THREQ   =  0.00D+00  THRDE   =  1.00D+00  THRREF  =  1.00D-05  SPARFAC =  1.00D+00  THRDLP  =  1.00D-07
 THRDIA  =  1.00D-10  THRDLS  =  1.00D-07  THRGPS  =  0.00D+00  THRKEX  =  0.00D+00  THRDIS  =  2.00D-01  THRVAR  =  1.00D-10
 THRLOC  =  1.00D-06  THRGAP  =  1.00D-06  THRLOCT = -1.00D+00  THRGAPT = -1.00D+00  THRORB  =  1.00D-06  THRMLTP =  0.00D+00
 THRCPQCI=  1.00D-10  KEXTA   =  0.00D+00  THRCOARS=  0.00D+00  SYMTOL  =  1.00D-06  GRADTOL =  1.00D-06  THROVL  =  1.00D-08
 THRORTH =  1.00D-08  GRID    =  1.00D-06  GRIDMAX =  1.00D-03  DTMAX   =  0.00D+00  THROCCDE=  1.00D-01  THROCCDE=  1.00D-01
 THRPRINT=  2.50D-01


 THRESHOLDS:

 ZERO    =  1.00D-22  ONEINT  =  1.00D-22  TWOINT  =  1.00D-22  PREFAC  =  1.00D-14  XXXXXX  =  1.00D-09  EORDER  =  1.00D-04
 ENERGY  =  1.00D-12  ETEST   =  0.00D+00  EDENS   =  0.00D+00  THRDEDEF=  1.00D-06  GRADIENT=  1.00D-05  STEP    =  1.00D-03
 ORBITAL =  1.00D-05  CIVEC   =  1.00D-05  COEFF   =  1.00D-04  PRINTCI =  5.00D-02  PUNCHCI =  9.90D+01  OPTGRAD =  1.00D-08
 OPTENERG=  1.00D-06  OPTSTEP =  1.00D-08  THRGRAD =  1.00D-10  COMPRESS=  1.00D-11  VARMIN  =  1.00D-07  VARMAX  =  1.00D-03
 THRDOUB =  0.00D+00  THRDIV  =  1.00D-05  THRRED  =  1.00D-07  THRPSP  =  1.00D+00  THRDC   =  1.00D-10  THRCS   =  1.00D-10
 THRNRM  =  1.00D-08  THREQ   =  0.00D+00  THRDE   =  1.00D+00  THRREF  =  1.00D-05  SPARFAC =  1.00D+00  THRDLP  =  1.00D-07
 THRDIA  =  1.00D-10  THRDLS  =  1.00D-07  THRGPS  =  0.00D+00  THRKEX  =  0.00D+00  THRDIS  =  2.00D-01  THRVAR  =  1.00D-10
 THRLOC  =  1.00D-06  THRGAP  =  1.00D-06  THRLOCT = -1.00D+00  THRGAPT = -1.00D+00  THRORB  =  1.00D-06  THRMLTP =  0.00D+00
 THRCPQCI=  1.00D-10  KEXTA   =  0.00D+00  THRCOARS=  0.00D+00  SYMTOL  =  1.00D-06  GRADTOL =  1.00D-06  THROVL  =  1.00D-08
 THRORTH =  1.00D-08  GRID    =  1.00D-06  GRIDMAX =  1.00D-03  DTMAX   =  0.00D+00  THROCCDE=  1.00D-01  THROCCDE=  1.00D-01
 THRPRINT=  2.50D-01


 Input parameters for SORTINT:

 COMPRESS =    0.000000
 C_FINAL  =    1.000000
 DEBUG    =   -1.000000
 C_SORT1  =    0.000000
 C_SEWARD =    0.000000
 THRESH   =    0.000000
 IO       =  molpro                                                                                                                          
 SPRI     =    0.000000
 ZUNIT=BOHR


 Geometry recognized as XYZ

 SETTING CHARGE         =     0.00000000D+00                                  
 SETTING SPIN           =     0.00000000D+00                                  
 SETTING BASIS          =    VDZ-F12


 Recomputing integrals since basis changed


 Using spherical harmonics

 Library entry H      S cc-pVDZ-F12          selected for orbital group  1
 Library entry H      P cc-pVDZ-F12          selected for orbital group  1
 Library entry C      S cc-pVDZ-F12          selected for orbital group  2
 Library entry C      P cc-pVDZ-F12          selected for orbital group  2
 Library entry C      D cc-pVDZ-F12          selected for orbital group  2
 Library entry F      S cc-pVDZ-F12          selected for orbital group  3
 Library entry F      P cc-pVDZ-F12          selected for orbital group  3
 Library entry F      D cc-pVDZ-F12          selected for orbital group  3


 PROGRAM * SEWARD (Integral evaluation for generally contracted gaussian basis sets)     Author: Roland Lindh, 1990

 Geometry written to block  1 of record 700


 Point group  Cs  



 ATOMIC COORDINATES

 NR  ATOM    CHARGE       X              Y              Z

   1  H       1.00   -1.147121280    1.850273877    0.000000000
   2  C       6.00    0.475181472    1.023983505    0.000000000
   3  F       9.00   -0.014448248   -1.216181393    0.000000000

 Bond lengths in Bohr (Angstrom)

 1-2  1.820610337  2-3  2.293049505
     ( 0.963425500)     ( 1.213429542)

 Bond angles

  1-2-3  104.66202215

 NUCLEAR CHARGE:                   16
 NUMBER OF PRIMITIVE AOS:          93
 NUMBER OF SYMMETRY AOS:           89
 NUMBER OF CONTRACTIONS:           69   (   49A'  +   20A"  )
 NUMBER OF INNER CORE ORBITALS:     0   (    0A'  +    0A"  )
 NUMBER OF OUTER CORE ORBITALS:     2   (    2A'  +    0A"  )
 NUMBER OF VALENCE ORBITALS:        9   (    7A'  +    2A"  )


 NUCLEAR REPULSION ENERGY   29.59819391

 Eigenvalues of metric

         1 0.124E-02 0.230E-02 0.262E-02 0.314E-02 0.326E-02 0.467E-02 0.468E-02 0.778E-02
         2 0.330E-02 0.468E-02 0.701E-01 0.826E-01 0.106E+00 0.152E+00 0.239E+00 0.374E+00


 Contracted 2-electron integrals neglected if value below      1.0D-22

        1426049. INTEGRALS WRITTEN OUT IN     349 BLOCKS ON RECORD 1290 OF FILE 1


 NUMBER OF SORTED TWO-ELECTRON INTEGRALS:    1544830.     BUFFER LENGTH:  32768
 NUMBER OF SEGMENTS:   1  SEGMENT LENGTH:    1544830      RECORD LENGTH: 524288

 Memory used in sort:       2.10 MW

 SORT1 READ     1426049. AND WROTE     1455925. INTEGRALS IN      5 RECORDS. CPU TIME:     0.02 SEC, REAL TIME:     0.04 SEC
 SORT2 READ     1455925. AND WROTE     1544830. INTEGRALS IN      1 RECORDS. CPU TIME:     0.06 SEC, REAL TIME:     0.06 SEC

 FILE SIZES:   FILE 1:    53.0 MBYTE,  FILE 4:    21.0 MBYTE,   TOTAL:     74.0 MBYTE

 OPERATOR DM      FOR CENTER  0  COORDINATES:    0.000000    0.000000    0.000000


 **********************************************************************************************************************************
 DATASETS  * FILE   NREC   LENGTH (MB)   RECORD NAMES
              1      19       42.18       500      610      700      900      950      970     1000      129      960     1100   
                                          VAR    BASINP    GEOM    SYMINP    ZMAT    AOBASIS   BASIS     P2S    ABASIS      S 
                                         1400     1410     1200     1210     1080     1600     1650     1300     1700   
                                           T        V       H0       H01     AOSYM     SMH    MOLCAS    ERIS     OPER   

 PROGRAMS   *        TOTAL       INT
 CPU TIMES  *         1.04      0.91
 REAL TIME  *         2.64 SEC
 DISK USED  *        74.32 MB
 **********************************************************************************************************************************


 PROGRAM * RHF-SCF (CLOSED SHELL)       Authors: W. Meyer, H.-J. Werner


 NUMBER OF ELECTRONS:       8+    8-
 CONVERGENCE THRESHOLDS:    1.00E-10 (Density)    1.00E-13 (Energy)
 MAX. NUMBER OF ITERATIONS:      500
 INTERPOLATION TYPE:            DIIS
 INTERPOLATION STEPS:              2 (START)      1 (STEP)
 LEVEL SHIFTS:                  0.00 (CLOSED)  0.00 (OPEN) 



 Orbital guess generated from atomic densities. Full valence occupancy:    9   2

 Molecular orbital dump at record        2100.2

 Initial occupancy:   7   1

 ITERATION    DDIFF          GRAD             ENERGY        2-EL.EN.            DIPOLE MOMENTS         DIIS   ORB.
    1      0.000D+00      0.000D+00      -137.76576970    161.144564   -0.79712   -0.14083    0.00000    0    start
    2      0.000D+00      0.886D-02      -137.78676356    162.516167   -0.73595   -0.07525    0.00000    1    diag
    3      0.117D-01      0.238D-02      -137.78823957    162.439444   -0.71973   -0.00880    0.00000    2    diag
    4      0.269D-02      0.690D-03      -137.78842891    162.362880   -0.72140   -0.00261    0.00000    3    diag
    5      0.100D-02      0.300D-03      -137.78845680    162.424349   -0.72081    0.00635    0.00000    4    diag
    6      0.301D-03      0.758D-04      -137.78846117    162.420348   -0.72089    0.00855    0.00000    5    diag
    7      0.144D-03      0.219D-04      -137.78846157    162.420969   -0.72115    0.00901    0.00000    6    diag
    8      0.518D-04      0.416D-05      -137.78846158    162.420783   -0.72117    0.00899    0.00000    7    diag
    9      0.892D-05      0.688D-06      -137.78846158    162.420809   -0.72119    0.00898    0.00000    8    diag
   10      0.164D-05      0.147D-06      -137.78846158    162.420808   -0.72119    0.00897    0.00000    9    orth
   11      0.414D-06      0.348D-07      -137.78846158    162.420807   -0.72119    0.00897    0.00000    9    diag
   12      0.995D-07      0.822D-08      -137.78846158    162.420807   -0.72119    0.00897    0.00000    9    diag
   13      0.198D-07      0.174D-08      -137.78846158    162.420807   -0.72119    0.00897    0.00000    9    diag
   14      0.429D-08      0.425D-09      -137.78846158    162.420807   -0.72119    0.00897    0.00000    9    diag
   15      0.114D-08      0.934D-10      -137.78846158    162.420807   -0.72119    0.00897    0.00000    9    diag
   16      0.165D-09      0.302D-10      -137.78846158    162.420807   -0.72119    0.00897    0.00000    9    diag
   17      0.458D-10      0.570D-11      -137.78846158    162.420807   -0.72119    0.00897    0.00000    9    diag
   18      0.163D-10      0.115D-11      -137.78846158    162.420807   -0.72119    0.00897    0.00000    9    diag
   19      0.245D-11      0.266D-12      -137.78846158    162.420807   -0.72119    0.00897    0.00000    9    fixocc
   20      0.831D-12      0.658D-13      -137.78846158    162.420807   -0.72119    0.00897    0.00000    0    orth

 Final occupancy:   7   1

 !RHF STATE  1.1 Energy              -137.788461584827
 Nuclear energy                        29.59819391
 One-electron energy                 -248.59705893
 Two-electron energy                   81.21040343
 Virial quotient                       -0.99705789
 !RHF STATE  1.1 Dipole moment         -0.72119081     0.00897031     0.00000000
 Dipole moment /Debye                  -1.83296414     0.02279875     0.00000000

 Orbital energies:

         1.1          2.1          3.1          4.1          5.1          6.1          7.1          8.1          9.1
    -26.379048   -11.330420    -1.743693    -0.972455    -0.818109    -0.704575    -0.389043     0.067194     0.082816

         1.2          2.2          3.2
     -0.750784     0.054217     0.135533


 HOMO      7.1    -0.389043 =     -10.5864eV
 LUMO      2.2     0.054217 =       1.4753eV
 LUMO-HOMO         0.443260 =      12.0617eV


 **********************************************************************************************************************************
 DATASETS  * FILE   NREC   LENGTH (MB)   RECORD NAMES
              1      19       42.18       500      610      700      900      950      970     1000      129      960     1100   
                                          VAR    BASINP    GEOM    SYMINP    ZMAT    AOBASIS   BASIS     P2S    ABASIS      S 
                                         1400     1410     1200     1210     1080     1600     1650     1300     1700   
                                           T        V       H0       H01     AOSYM     SMH    MOLCAS    ERIS     OPER   

              2       4        2.84       700     1000      520     2100   
                                         GEOM     BASIS   MCVARS     RHF  

 PROGRAMS   *        TOTAL    HF-SCF       INT
 CPU TIMES  *         1.31      0.27      0.91
 REAL TIME  *         3.01 SEC
 DISK USED  *        74.32 MB
 **********************************************************************************************************************************


 PROGRAM * CCSD (Closed-shell coupled cluster)     Authors: C. Hampel, H.-J. Werner, 1991, M. Deegan, P.J. Knowles, 1992

                                  CCSD-F12 implementation by  H.-J. Werner, 2007

                   Density fitting integral evaluation by F.R. Manby, 2003,2007, G. Knizia, 2010


 Basis set AUG-CC-PVDZ/JKFIT generated.  Number of basis functions:   204 
 Basis set CC-PVDZ-F12/OPTRI generated.  Number of basis functions:   154 
 Basis set AUG-CC-PVDZ/MP2FIT generated. Number of basis functions:   167 

 Convergence thresholds:  THRVAR = 1.00D-16  THRDEN = 1.00D-12

 CCSD(T)     terms to be evaluated (factor= 1.000)


 Number of core orbitals:           2 (   2   0 )
 Number of closed-shell orbitals:   6 (   5   1 )
 Number of external orbitals:      61 (  42  19 )

 Molecular orbitals read from record     2100.2  Type=RHF/CANONICAL (state 1.1)

 MP2-F12 correlation treatment (H.-J. Werner, 2006)
 ==================================================

 Using MP2-F12 with ansatz 3C(FIX)

 Using projected zeroth-order Hamiltonian (+Z)

 FOCKRIB=T FOCKRIC=T FOCKRIP=T CABSP=T CABSA=T CABSK=T CABSF=T GBC=F EBC=F DMAT=T NOFIK=T NOPAO=1 SOLVE=-1  USEPAO=0
 EXCH_A= T EXCH_B= F EXCH_C= F EXCH_P= F

 Geminal basis:    OPTFULL  GEM_TYPE=SLATER  BETA=1.0  NGEM=6

 Optimizing Gaussian exponents for each gem_beta

 Geminal optimization for beta= 1.0000
 Weight function:   m=0, omega= 1.4646

 Augmented Hessian optimization of geminal fit. Trust ratio= 0.40000
 Convergence reached after   2 iterations. Final gradient= 8.66D-16, Step= 4.23D-06, Delta= 1.28D-09

 Alpha:                 0.19532     0.81920     2.85917     9.50073    35.69989   197.79328
 Coeff:                 0.27070     0.30552     0.18297     0.10986     0.06810     0.04224


 Symmetry turned off. Reference energy:       -137.788461584827

 All pairs explicitly correlated. Number of r12-pairs:           21

 Excluding core orbitals from MO domains

 AO(A)-basis ORBITAL           loaded. Number of functions:      69
 RI(R)-basis CC-PVDZ-F12/OPTRI loaded. Number of functions:     154
 DF-basis AUG-CC-PVDZ/JKFIT    loaded. Number of functions:     204

 Screening thresholds:   THRAO=  1.00D-10  THRMO=  1.00D-10  THRPROD=  1.00D-10
                         THRSW=  1.00D-07  THROV=  1.00D-12  THRAOF12= 1.00D-08

 CPU time for Fock operators                      0.91 sec

 Construction of ABS:
 Smallest eigenvalue of S          7.79E-04  (threshold= 1.00E-08)
 Ratio eigmin/eigmax               1.55E-04  (threshold= 1.00E-09)
 Smallest eigenvalue of S kept     7.79E-04  (threshold= 7.79E-04, 0 functions deleted, 154 kept)

 Construction of CABS:
 Smallest eigenvalue of S          8.46E-06  (threshold= 1.00E-08)
 Ratio eigmin/eigmax               8.46E-06  (threshold= 1.00E-09)
 Smallest eigenvalue of S kept     8.46E-06  (threshold= 8.46E-06, 0 functions deleted, 154 kept)

 CPU time for CABS singles                        0.01 sec

 CABS-singles contribution of  -0.00703928 patched into reference energy.
 New reference energy        -137.79550087

 AO(A)-basis ORBITAL           loaded. Number of functions:      69
 RI(R)-basis CC-PVDZ-F12/OPTRI loaded. Number of functions:     154
 DF-basis AUG-CC-PVDZ/MP2FIT   loaded. Number of functions:     167

 Screening thresholds:   THRAO=  1.00D-10  THRMO=  1.00D-10  THRPROD=  1.00D-10
                         THRSW=  1.00D-07  THROV=  1.00D-12  THRAOF12= 1.00D-08

 CPU time for 3-index integral evaluation         0.40 sec
 CPU time for first  half transformation          0.03 sec ( 5065.5 MFLOP/sec)
 CPU time for sorting                             0.01 sec
 CPU time for tilde quantities                    0.01 sec (10307.8 MFLOP/sec)
 CPU time for assembly                            0.03 sec (25829.3 MFLOP/sec)
 CPU time for tranop_f12                          0.04 sec (26124.8 MFLOP/sec)
 CPU time for f12 integrals (total)               1.21 sec, Elapsed time:      1.28 sec
 CPU time for f12 matrices (total)                0.02 sec, Elapsed time:      0.02 sec

 Diagonal F12 approximation with fixed coefficients:  TSING= 0.500,  TTRIP= 0.250 (scaled by -1/beta)

 DF-MP2-F12 energy corrections:
 ==============================
 Approx.                                    Singlet             Triplet             Total
 DF-MP2-F12/3*C(DX,FIX)                -0.079297228063     -0.016713617802     -0.096010845866
 DF-MP2-F12/3*C(FIX)                   -0.069405676980     -0.015615051212     -0.085020728192
 DF-MP2-F12/3C(FIX)                    -0.070021760464     -0.016443780910     -0.086465541374

 DF-MP2-F12 correlation energies:
 ================================
 Approx.                                    Singlet             Triplet             Ecorr            Total Energy
 DF-MP2                                -0.219535085107     -0.130404484912     -0.349939570019   -138.145440435153
 DF-MP2-F12/3*C(DX,FIX)                -0.298832313170     -0.147118102714     -0.445950415884   -138.241451281019
 DF-MP2-F12/3*C(FIX)                   -0.288940762087     -0.146019536123     -0.434960298210   -138.230461163345
 DF-MP2-F12/3C(FIX)                    -0.289556845571     -0.146848265822     -0.436405111393   -138.231905976528

 SCS-DF-MP2 energies (F_SING= 1.20000  F_TRIP= 0.62222  F_PARALLEL= 0.33333):
 ============================================================================
 SCS-DF-MP2                            -0.344582670518   -138.140083535653
 SCS-DF-MP2-F12/3*C(DX,FIX)            -0.450138928604   -138.245639793739
 SCS-DF-MP2-F12/3*C(FIX)               -0.437585514759   -138.233086379894
 SCS-DF-MP2-F12/3C(FIX)                -0.438840468974   -138.234341334109

 Symmetry restored.
 Symmetry transformation completed.

 Number of N-1 electron functions:               6
 Number of N-2 electron functions:              21
 Number of singly external CSFs:               229
 Number of doubly external CSFs:             35788
 Total number of CSFs:                       36018

 Length of J-op  integral file:              15.24 MB
 Length of K-op  integral file:              18.55 MB
 Length of 3-ext integral record:             0.00 MB

 Memory could be reduced to 1.16 Mwords without degradation in triples

 Integral transformation finished. Total CPU:   0.02 sec, npass=  1  Memory used:   0.52 MW

 Reference energy:                   -137.79550087

 Adding F12 terms to K(Cij), methodcc=6,  factor= 1.0

 ITER.      SQ.NORM     CORR.ENERGY   TOTAL ENERGY   ENERGY CHANGE        DEN1      VAR(S)    VAR(P)  DIIS     TIME  TIME/IT
   1      1.08569233    -0.35613472  -138.15163559    -0.00610370     0.00390599  0.20D-02  0.18D-02  1  1     2.26     0.05
   2      1.09367715    -0.35674370  -138.15224457    -0.00060898    -0.00799238  0.60D-04  0.40D-03  2  2     2.31     0.05
   3      1.09877138    -0.35738308  -138.15288395    -0.00063938    -0.00208139  0.59D-04  0.71D-04  3  3     2.36     0.05
   4      1.10202458    -0.35756998  -138.15307085    -0.00018690    -0.00110797  0.34D-05  0.19D-04  4  4     2.41     0.05
   5      1.10368176    -0.35760815  -138.15310901    -0.00003816    -0.00026278  0.35D-06  0.36D-05  5  5     2.46     0.05
   6      1.10431177    -0.35760468  -138.15310555     0.00000346    -0.00003978  0.19D-06  0.53D-06  6  6     2.51     0.05
   7      1.10443878    -0.35760840  -138.15310927    -0.00000372    -0.00000983  0.61D-07  0.67D-07  6  1     2.56     0.05
   8      1.10445027    -0.35761189  -138.15311276    -0.00000349     0.00000594  0.56D-08  0.75D-08  6  2     2.61     0.06
   9      1.10445538    -0.35761240  -138.15311326    -0.00000050    -0.00000162  0.16D-08  0.82D-09  6  3     2.66     0.06
  10      1.10445319    -0.35761270  -138.15311357    -0.00000031     0.00000157  0.16D-09  0.17D-09  6  4     2.71     0.06
  11      1.10445225    -0.35761271  -138.15311358    -0.00000001     0.00000016  0.46D-10  0.15D-10  6  5     2.75     0.06
  12      1.10445165    -0.35761276  -138.15311362    -0.00000004     0.00000025  0.52D-11  0.30D-11  6  6     2.79     0.06
  13      1.10445136    -0.35761276  -138.15311363    -0.00000001     0.00000006  0.12D-11  0.72D-12  6  1     2.84     0.06
  14      1.10445118    -0.35761277  -138.15311363    -0.00000000     0.00000003  0.13D-12  0.25D-12  6  2     2.89     0.06
  15      1.10445107    -0.35761277  -138.15311363    -0.00000000     0.00000001  0.13D-13  0.73D-13  6  3     2.94     0.06
  16      1.10445101    -0.35761277  -138.15311363    -0.00000000     0.00000001  0.39D-14  0.19D-13  6  4     2.99     0.06
  17      1.10445097    -0.35761277  -138.15311363    -0.00000000     0.00000001  0.21D-14  0.28D-14  6  5     3.04     0.06
  18      1.10445095    -0.35761277  -138.15311363     0.00000000     0.00000000  0.37D-15  0.39D-15  6  6     3.10     0.06
  19      1.10445095    -0.35761277  -138.15311363    -0.00000000     0.00000000  0.98D-16  0.67D-16  6  1     3.15     0.06
  20      1.10445095    -0.35761277  -138.15311363     0.00000000     0.00000000  0.16D-16  0.97D-17  6  2     3.20     0.06
  21      1.10445095    -0.35761277  -138.15311363    -0.00000000     0.00000000  0.39D-17  0.15D-17  6  3     3.25     0.06
  22      1.10445095    -0.35761277  -138.15311363    -0.00000000    -0.00000000  0.75D-18  0.25D-18  6  4     3.30     0.06
  23      1.10445095    -0.35761277  -138.15311363     0.00000000    -0.00000000  0.14D-18  0.78D-19  6  5     3.34     0.06
  24      1.10445095    -0.35761277  -138.15311363     0.00000000    -0.00000000  0.24D-19  0.30D-19  6  6     3.39     0.06

 Norm of t1 vector:      0.06792658      S-energy:    -0.00000000      T1 diagnostic:  0.01386546
                                                                       D1 diagnostic:  0.04081302

 Doubles amplitudes (print threshold =  0.500E-01):

         I         J         SYM. A    SYM. B    A         B      T(IJ, AB)

         5         5         2         2         2         2     -0.05143953

 Adding energy correction from Wij-K(Fij), methodcc=6  factor= 1.0

  CCSD correlation energy              -0.357612766711
  MP2-F12 correction (uncoupled)       -0.081648140150
  C*T doubles correction               -0.002727807030
  f12b correction                       0.010018844344


 Total CPU time for triples:      0.25 sec


 RESULTS
 =======

  Reference energy                   -137.788461584827
  F12 singles correction               -0.007039280307

 F12 singles corrections added to reference energy

  New reference energy               -137.795500865135

  F12a singlet correction              -0.068686687041
  F12a triplet correction              -0.015689260139
  F12a total correction                -0.084375947180

 F12a corrections for ansatz F12/3C(FIX) added to CCSD energy

  CCSD-F12a singlet pair energy        -0.307912822522
  CCSD-F12a triplet pair energy        -0.134075891368
  CCSD-F12a correlation energy         -0.441988713891

  Triples (T) contribution             -0.011277428988
  Total correlation energy             -0.453266142880

  CCSD-F12a total energy             -138.237489579026
  CCSD[T]-F12a energy                -138.249568938245
  CCSD-T-F12a energy                 -138.248502594551
 !CCSD(T)-F12a total energy          -138.248767008014

 F12b corrections for ansatz F12/3C(FIX) added to CCSD(T)-F12a energy

  CCSD-F12b singlet pair energy        -0.298874623145
  CCSD-F12b triplet pair energy        -0.133095246400
  CCSD-F12b correlation energy         -0.431969869547

  Triples (T) contribution             -0.011277428988
  Total correlation energy             -0.443247298535

  CCSD-F12b total energy             -138.227470734682
  CCSD[T]-F12b energy                -138.239550093901
  CCSD-T-F12b energy                 -138.238483750207
 !CCSD(T)-F12b total energy          -138.238748163670

 Timing summary (sec):

 STEP                 CPU(USER)    SYS     CPU(TOT)    WALL
 Transformation          0.03      0.02      0.05      0.04
 CCSD iterations         1.20      0.15      1.35      1.38
 Triples                 0.25      0.02      0.27      0.26
 MP2-F12                 2.16      0.10      2.26      2.60
 F12b energy             0.03      0.00      0.03      0.04

 Program statistics:

 Available memory in ccsd:              1999999744
 Min. memory needed in ccsd:                136839
 Max. memory used in ccsd:                  163083
 Max. memory used in cckext:                208330 (25 integral passes)



 **********************************************************************************************************************************
 DATASETS  * FILE   NREC   LENGTH (MB)   RECORD NAMES
              1      20       45.77       500      610      700      900      950      970     1000      129      960     1100   
                                          VAR    BASINP    GEOM    SYMINP    ZMAT    AOBASIS   BASIS     P2S    ABASIS      S 
                                         1400     1410     1200     1210     1080     1600     1650     1300     1700     1380   
                                           T        V       H0       H01     AOSYM     SMH    MOLCAS    ERIS     OPER     JKOP   

              2       6        2.90       700     1000      520     2100     7360     7350   
                                         GEOM     BASIS   MCVARS     RHF    F12ABS    EF12   

 PROGRAMS   *        TOTAL   CCSD(T)    HF-SCF       INT
 CPU TIMES  *         5.02      3.71      0.27      0.91
 REAL TIME  *         7.37 SEC
 DISK USED  *        97.74 MB
 **********************************************************************************************************************************
 SETTING EE(1)          =      -138.23874816  AU                              


 Computing numerical gradient using default procedure for command CCSD(T)-F12

 *** Long output written to logfile /home/mdavis/f12eom_optimizer/tests/slurm/molpro_step.log ***


 Running default procedure: HF-SCF000  CCSD(T)-F12


 Generated   3 symmetrical displacements

 Numerical gradient for CCSD(T)-F12

 Total Energy          -138.23874816  Dipole moments:    0.000000    0.000000    0.000000

 Atom          dE/dx               dE/dy               dE/dz                  d2E/dx2             d2E/dy2             d2E/dz2
   1         0.121483768        -0.066299678         0.000000000            0.000000000         0.000000000         0.000000000
   2        -0.142993338        -0.046769985        -0.000000000            0.000000000         0.000000000         0.000000000
   3         0.021509570         0.113069663         0.000000000            0.000000000         0.000000000         0.000000000

 Recomputing wavefunction at initial geometry


 **********************************************************************************************************************************
 DATASETS  * FILE   NREC   LENGTH (MB)   RECORD NAMES
              1      21       45.99       500      610      700      900      701      950      970     1000      129      960   
                                          VAR    BASINP    GEOM    SYMINP    GEOM     ZMAT    AOBASIS   BASIS     P2S    ABASIS    
                                         1100     1400     1410     1200     1210     1080     1600     1650     1300     1700   
                                           S        T        V       H0       H01     AOSYM     SMH    MOLCAS    ERIS     OPER   
                                         1380   
                                         JKOP   

              2       8        3.12       700     1000      520     2100     7360     7350      701     5600   
                                         GEOM     BASIS   MCVARS     RHF    F12ABS    EF12     GEOM     GINFO   

 PROGRAMS   *        TOTAL    FORCES    HF-SCF       INT   CCSD(T)    HF-SCF       INT
 CPU TIMES  *        40.11      3.71      0.05     31.32      3.71      0.27      0.91
 REAL TIME  *        50.23 SEC
 DISK USED  *       100.73 MB
 **********************************************************************************************************************************
 EE(1)            =     -138.238748163670 AU
 GRADX(1:3)       = [      0.121483767888   -0.142993338349    0.021509570461] AU
 GRADY(1:3)       = [     -0.066299678270   -0.046769984746    0.113069663016] AU
 GRADZ(1:3)       = [      0.000000000000   -0.000000000000    0.000000000000] AU

 CCSD(T)-F12/cc-pVDZ-F12 energy=   -138.238748163670

     CCSD(T)-F12          HF-SCF     CCSD(T)-F12          HF-SCF
   -138.23874816   -137.78846158   -138.23874816   -137.78846158
 **********************************************************************************************************************************
 Molpro calculation terminated
