
 Primary working directories    : /scratch/mdavis/molpro_step_2022-08-17_18_15_22/molpro.RlcaGRW4F3
 Secondary working directories  : /scratch/mdavis/molpro_step_2022-08-17_18_15_22/molpro.RlcaGRW4F3
 Wavefunction directory         : /home/mdavis/f12eom_optimizer/tests/slurm/./
 Main file repository           : /scratch/mdavis/molpro_step_2022-08-17_18_15_22/molpro.RlcaGRW4F3/

 id        : olemiss

 Nodes     nprocs
 node17       1

 Using customized tuning parameters: mindgm=1; mindgv=20; mindgc=4; mindgr=1; noblas=0; minvec=7
 default implementation of scratch files=df  


 Variables initialized (945), CPU time= 0.00 sec
 ***,part of geometry opt run
 memory, 2000.0, m;
 gthresh,energy=1.d-12,zero=1.d-22,oneint=1.d-22,twoint=1.d-22;
 gthresh,optgrad=1.d-8,optstep=1.d-8;
 nocompress;
 bohr;
 geometry={
      3
 Fragment 1
     H  -1.6055702098   1.6823660274   0.0000000000
     C   0.4912188960   1.1301087241   0.0000000000
     F   0.2357040484  -1.4921949016   0.0000000000
      }
 
 set,charge=0
 set,spin=0
 basis=vdz-f12
 hf,maxit=500;wf,charge=0,spin=0;accu,20;
 ccsd(t)-f12,maxit=250;wf,charge=0,spin=0;orbital,IGNORE_ERROR;
 ee(1)=energy(2)
 forces,varsav
 SHOW[f18.12],ee(1)
 SHOW[f18.12],GRADX
 SHOW[f18.12],GRADY
 SHOW[f18.12],GRADZ
 Commands  initialized (802), CPU time= 0.01 sec, 659 directives.
 Default parameters read. Elapsed time= 0.10 sec

 Checking input...
 Passed
1


                                         ***  PROGRAM SYSTEM MOLPRO  ***
                                       Copyright, TTI GmbH Stuttgart, 2015
                                    Version 2020.1 linked Oct  6 2020 12:04:11


 **********************************************************************************************************************************
 LABEL *   part of geometry opt run                                                      
  64 bit serial version                                                                  DATE: 17-Aug-22          TIME: 18:15:23  
 **********************************************************************************************************************************

 SHA1:             8c27446f6450a7499e38f603e13c65f775101d37
 **********************************************************************************************************************************

 Memory per process:      2000 MW
 Total memory per node:   2000 MW

 GA preallocation disabled
 GA check disabled

 Variable memory set to 2000.0 MW


 THRESHOLDS:

 ZERO    =  1.00D-22  ONEINT  =  1.00D-22  TWOINT  =  1.00D-22  PREFAC  =  1.00D-14  XXXXXX  =  1.00D-09  EORDER  =  1.00D-04
 ENERGY  =  1.00D-12  ETEST   =  0.00D+00  EDENS   =  0.00D+00  THRDEDEF=  1.00D-06  GRADIENT=  1.00D-05  STEP    =  1.00D-03
 ORBITAL =  1.00D-05  CIVEC   =  1.00D-05  COEFF   =  1.00D-04  PRINTCI =  5.00D-02  PUNCHCI =  9.90D+01  OPTGRAD =  3.00D-04
 OPTENERG=  1.00D-06  OPTSTEP =  3.00D-04  THRGRAD =  1.00D-10  COMPRESS=  1.00D-11  VARMIN  =  1.00D-07  VARMAX  =  1.00D-03
 THRDOUB =  0.00D+00  THRDIV  =  1.00D-05  THRRED  =  1.00D-07  THRPSP  =  1.00D+00  THRDC   =  1.00D-10  THRCS   =  1.00D-10
 THRNRM  =  1.00D-08  THREQ   =  0.00D+00  THRDE   =  1.00D+00  THRREF  =  1.00D-05  SPARFAC =  1.00D+00  THRDLP  =  1.00D-07
 THRDIA  =  1.00D-10  THRDLS  =  1.00D-07  THRGPS  =  0.00D+00  THRKEX  =  0.00D+00  THRDIS  =  2.00D-01  THRVAR  =  1.00D-10
 THRLOC  =  1.00D-06  THRGAP  =  1.00D-06  THRLOCT = -1.00D+00  THRGAPT = -1.00D+00  THRORB  =  1.00D-06  THRMLTP =  0.00D+00
 THRCPQCI=  1.00D-10  KEXTA   =  0.00D+00  THRCOARS=  0.00D+00  SYMTOL  =  1.00D-06  GRADTOL =  1.00D-06  THROVL  =  1.00D-08
 THRORTH =  1.00D-08  GRID    =  1.00D-06  GRIDMAX =  1.00D-03  DTMAX   =  0.00D+00  THROCCDE=  1.00D-01  THROCCDE=  1.00D-01
 THRPRINT=  2.50D-01


 THRESHOLDS:

 ZERO    =  1.00D-22  ONEINT  =  1.00D-22  TWOINT  =  1.00D-22  PREFAC  =  1.00D-14  XXXXXX  =  1.00D-09  EORDER  =  1.00D-04
 ENERGY  =  1.00D-12  ETEST   =  0.00D+00  EDENS   =  0.00D+00  THRDEDEF=  1.00D-06  GRADIENT=  1.00D-05  STEP    =  1.00D-03
 ORBITAL =  1.00D-05  CIVEC   =  1.00D-05  COEFF   =  1.00D-04  PRINTCI =  5.00D-02  PUNCHCI =  9.90D+01  OPTGRAD =  1.00D-08
 OPTENERG=  1.00D-06  OPTSTEP =  1.00D-08  THRGRAD =  1.00D-10  COMPRESS=  1.00D-11  VARMIN  =  1.00D-07  VARMAX  =  1.00D-03
 THRDOUB =  0.00D+00  THRDIV  =  1.00D-05  THRRED  =  1.00D-07  THRPSP  =  1.00D+00  THRDC   =  1.00D-10  THRCS   =  1.00D-10
 THRNRM  =  1.00D-08  THREQ   =  0.00D+00  THRDE   =  1.00D+00  THRREF  =  1.00D-05  SPARFAC =  1.00D+00  THRDLP  =  1.00D-07
 THRDIA  =  1.00D-10  THRDLS  =  1.00D-07  THRGPS  =  0.00D+00  THRKEX  =  0.00D+00  THRDIS  =  2.00D-01  THRVAR  =  1.00D-10
 THRLOC  =  1.00D-06  THRGAP  =  1.00D-06  THRLOCT = -1.00D+00  THRGAPT = -1.00D+00  THRORB  =  1.00D-06  THRMLTP =  0.00D+00
 THRCPQCI=  1.00D-10  KEXTA   =  0.00D+00  THRCOARS=  0.00D+00  SYMTOL  =  1.00D-06  GRADTOL =  1.00D-06  THROVL  =  1.00D-08
 THRORTH =  1.00D-08  GRID    =  1.00D-06  GRIDMAX =  1.00D-03  DTMAX   =  0.00D+00  THROCCDE=  1.00D-01  THROCCDE=  1.00D-01
 THRPRINT=  2.50D-01


 Input parameters for SORTINT:

 COMPRESS =    0.000000
 C_FINAL  =    1.000000
 DEBUG    =   -1.000000
 C_SORT1  =    0.000000
 C_SEWARD =    0.000000
 THRESH   =    0.000000
 IO       =  molpro                                                                                                                          
 SPRI     =    0.000000
 ZUNIT=BOHR


 Geometry recognized as XYZ

 SETTING CHARGE         =     0.00000000D+00                                  
 SETTING SPIN           =     0.00000000D+00                                  
 SETTING BASIS          =    VDZ-F12


 Recomputing integrals since basis changed


 Using spherical harmonics

 Library entry H      S cc-pVDZ-F12          selected for orbital group  1
 Library entry H      P cc-pVDZ-F12          selected for orbital group  1
 Library entry C      S cc-pVDZ-F12          selected for orbital group  2
 Library entry C      P cc-pVDZ-F12          selected for orbital group  2
 Library entry C      D cc-pVDZ-F12          selected for orbital group  2
 Library entry F      S cc-pVDZ-F12          selected for orbital group  3
 Library entry F      P cc-pVDZ-F12          selected for orbital group  3
 Library entry F      D cc-pVDZ-F12          selected for orbital group  3


 PROGRAM * SEWARD (Integral evaluation for generally contracted gaussian basis sets)     Author: Roland Lindh, 1990

 Geometry written to block  1 of record 700


 Point group  Cs  



 ATOMIC COORDINATES

 NR  ATOM    CHARGE       X              Y              Z

   1  H       1.00   -1.605570210    1.682366027    0.000000000
   2  C       6.00    0.491218896    1.130108724    0.000000000
   3  F       9.00    0.235704048   -1.492194902    0.000000000

 Bond lengths in Bohr (Angstrom)

 1-2  2.168297185  2-3  2.634722783
     ( 1.147413457)     ( 1.394235254)

 Bond angles

  1-2-3   99.19031179

 NUCLEAR CHARGE:                   16
 NUMBER OF PRIMITIVE AOS:          93
 NUMBER OF SYMMETRY AOS:           89
 NUMBER OF CONTRACTIONS:           69   (   49A'  +   20A"  )
 NUMBER OF INNER CORE ORBITALS:     0   (    0A'  +    0A"  )
 NUMBER OF OUTER CORE ORBITALS:     2   (    2A'  +    0A"  )
 NUMBER OF VALENCE ORBITALS:        9   (    7A'  +    2A"  )


 NUCLEAR REPULSION ENERGY   25.71504960

 Eigenvalues of metric

         1 0.211E-02 0.323E-02 0.328E-02 0.404E-02 0.437E-02 0.468E-02 0.476E-02 0.987E-02
         2 0.330E-02 0.469E-02 0.882E-01 0.983E-01 0.144E+00 0.191E+00 0.258E+00 0.394E+00


 Contracted 2-electron integrals neglected if value below      1.0D-22

        1426049. INTEGRALS WRITTEN OUT IN     349 BLOCKS ON RECORD 1290 OF FILE 1


 NUMBER OF SORTED TWO-ELECTRON INTEGRALS:    1544830.     BUFFER LENGTH:  32768
 NUMBER OF SEGMENTS:   1  SEGMENT LENGTH:    1544830      RECORD LENGTH: 524288

 Memory used in sort:       2.10 MW

 SORT1 READ     1426049. AND WROTE     1455925. INTEGRALS IN      5 RECORDS. CPU TIME:     0.03 SEC, REAL TIME:     0.04 SEC
 SORT2 READ     1455925. AND WROTE     1544830. INTEGRALS IN      1 RECORDS. CPU TIME:     0.06 SEC, REAL TIME:     0.06 SEC

 FILE SIZES:   FILE 1:    53.0 MBYTE,  FILE 4:    21.0 MBYTE,   TOTAL:     74.0 MBYTE

 OPERATOR DM      FOR CENTER  0  COORDINATES:    0.000000    0.000000    0.000000


 **********************************************************************************************************************************
 DATASETS  * FILE   NREC   LENGTH (MB)   RECORD NAMES
              1      19       42.18       500      610      700      900      950      970     1000      129      960     1100   
                                          VAR    BASINP    GEOM    SYMINP    ZMAT    AOBASIS   BASIS     P2S    ABASIS      S 
                                         1400     1410     1200     1210     1080     1600     1650     1300     1700   
                                           T        V       H0       H01     AOSYM     SMH    MOLCAS    ERIS     OPER   

 PROGRAMS   *        TOTAL       INT
 CPU TIMES  *         1.02      0.88
 REAL TIME  *         2.64 SEC
 DISK USED  *        74.32 MB
 **********************************************************************************************************************************


 PROGRAM * RHF-SCF (CLOSED SHELL)       Authors: W. Meyer, H.-J. Werner


 NUMBER OF ELECTRONS:       8+    8-
 CONVERGENCE THRESHOLDS:    1.00E-10 (Density)    1.00E-13 (Energy)
 MAX. NUMBER OF ITERATIONS:      500
 INTERPOLATION TYPE:            DIIS
 INTERPOLATION STEPS:              2 (START)      1 (STEP)
 LEVEL SHIFTS:                  0.00 (CLOSED)  0.00 (OPEN) 



 Orbital guess generated from atomic densities. Full valence occupancy:    9   2

 Molecular orbital dump at record        2100.2

 Initial occupancy:   7   1

 ITERATION    DDIFF          GRAD             ENERGY        2-EL.EN.            DIPOLE MOMENTS         DIIS   ORB.
    1      0.000D+00      0.000D+00      -137.76382521    155.132559   -0.64077    0.36494    0.00000    0    start
    2      0.000D+00      0.114D-01      -137.79356701    155.317044   -0.65013    0.13378    0.00000    1    diag
    3      0.171D-01      0.580D-02      -137.80020952    156.133823   -0.60622    0.31234    0.00000    2    diag
    4      0.556D-02      0.150D-02      -137.80069587    155.852776   -0.60000    0.30471    0.00000    3    diag
    5      0.126D-02      0.299D-03      -137.80076409    155.902944   -0.59879    0.31455    0.00000    4    diag
    6      0.482D-03      0.859D-04      -137.80077209    155.905012   -0.59794    0.31652    0.00000    5    diag
    7      0.171D-03      0.300D-04      -137.80077306    155.905115   -0.59802    0.31627    0.00000    6    diag
    8      0.751D-04      0.654D-05      -137.80077310    155.904929   -0.59802    0.31601    0.00000    7    diag
    9      0.166D-04      0.139D-05      -137.80077310    155.904936   -0.59803    0.31593    0.00000    8    diag
   10      0.313D-05      0.346D-06      -137.80077310    155.904924   -0.59803    0.31591    0.00000    9    orth
   11      0.945D-06      0.822D-07      -137.80077310    155.904922   -0.59803    0.31591    0.00000    9    diag
   12      0.224D-06      0.177D-07      -137.80077310    155.904922   -0.59803    0.31591    0.00000    9    diag
   13      0.423D-07      0.474D-08      -137.80077310    155.904922   -0.59803    0.31591    0.00000    9    diag
   14      0.118D-07      0.146D-08      -137.80077310    155.904922   -0.59803    0.31591    0.00000    9    diag
   15      0.266D-08      0.253D-09      -137.80077310    155.904922   -0.59803    0.31591    0.00000    9    diag
   16      0.383D-09      0.634D-10      -137.80077310    155.904922   -0.59803    0.31591    0.00000    9    diag
   17      0.128D-09      0.145D-10      -137.80077310    155.904922   -0.59803    0.31591    0.00000    9    diag
   18      0.354D-10      0.274D-11      -137.80077310    155.904922   -0.59803    0.31591    0.00000    0    orth

 Final occupancy:   7   1

 !RHF STATE  1.1 Energy              -137.800773097247
 Nuclear energy                        25.71504960
 One-electron energy                 -241.46828369
 Two-electron energy                   77.95246099
 Virial quotient                       -1.00208566
 !RHF STATE  1.1 Dipole moment         -0.59803203     0.31591122     0.00000000
 Dipole moment /Debye                  -1.51994625     0.80291364     0.00000000

 Orbital energies:

         1.1          2.1          3.1          4.1          5.1          6.1          7.1          8.1          9.1
    -26.340241   -11.392637    -1.636197    -0.912957    -0.731336    -0.652452    -0.431045     0.070575     0.081865

         1.2          2.2          3.2
     -0.684816     0.033061     0.118077


 HOMO      7.1    -0.431045 =     -11.7293eV
 LUMO      2.2     0.033061 =       0.8996eV
 LUMO-HOMO         0.464106 =      12.6290eV


 **********************************************************************************************************************************
 DATASETS  * FILE   NREC   LENGTH (MB)   RECORD NAMES
              1      19       42.18       500      610      700      900      950      970     1000      129      960     1100   
                                          VAR    BASINP    GEOM    SYMINP    ZMAT    AOBASIS   BASIS     P2S    ABASIS      S 
                                         1400     1410     1200     1210     1080     1600     1650     1300     1700   
                                           T        V       H0       H01     AOSYM     SMH    MOLCAS    ERIS     OPER   

              2       4        2.84       700     1000      520     2100   
                                         GEOM     BASIS   MCVARS     RHF  

 PROGRAMS   *        TOTAL    HF-SCF       INT
 CPU TIMES  *         1.27      0.25      0.88
 REAL TIME  *         2.98 SEC
 DISK USED  *        74.32 MB
 **********************************************************************************************************************************


 PROGRAM * CCSD (Closed-shell coupled cluster)     Authors: C. Hampel, H.-J. Werner, 1991, M. Deegan, P.J. Knowles, 1992

                                  CCSD-F12 implementation by  H.-J. Werner, 2007

                   Density fitting integral evaluation by F.R. Manby, 2003,2007, G. Knizia, 2010


 Basis set AUG-CC-PVDZ/JKFIT generated.  Number of basis functions:   204 
 Basis set CC-PVDZ-F12/OPTRI generated.  Number of basis functions:   154 
 Basis set AUG-CC-PVDZ/MP2FIT generated. Number of basis functions:   167 

 Convergence thresholds:  THRVAR = 1.00D-16  THRDEN = 1.00D-12

 CCSD(T)     terms to be evaluated (factor= 1.000)


 Number of core orbitals:           2 (   2   0 )
 Number of closed-shell orbitals:   6 (   5   1 )
 Number of external orbitals:      61 (  42  19 )

 Molecular orbitals read from record     2100.2  Type=RHF/CANONICAL (state 1.1)

 MP2-F12 correlation treatment (H.-J. Werner, 2006)
 ==================================================

 Using MP2-F12 with ansatz 3C(FIX)

 Using projected zeroth-order Hamiltonian (+Z)

 FOCKRIB=T FOCKRIC=T FOCKRIP=T CABSP=T CABSA=T CABSK=T CABSF=T GBC=F EBC=F DMAT=T NOFIK=T NOPAO=1 SOLVE=-1  USEPAO=0
 EXCH_A= T EXCH_B= F EXCH_C= F EXCH_P= F

 Geminal basis:    OPTFULL  GEM_TYPE=SLATER  BETA=1.0  NGEM=6

 Optimizing Gaussian exponents for each gem_beta

 Geminal optimization for beta= 1.0000
 Weight function:   m=0, omega= 1.4646

 Augmented Hessian optimization of geminal fit. Trust ratio= 0.40000
 Convergence reached after   2 iterations. Final gradient= 8.66D-16, Step= 4.23D-06, Delta= 1.28D-09

 Alpha:                 0.19532     0.81920     2.85917     9.50073    35.69989   197.79328
 Coeff:                 0.27070     0.30552     0.18297     0.10986     0.06810     0.04224


 Symmetry turned off. Reference energy:       -137.800773097247

 All pairs explicitly correlated. Number of r12-pairs:           21

 Excluding core orbitals from MO domains

 AO(A)-basis ORBITAL           loaded. Number of functions:      69
 RI(R)-basis CC-PVDZ-F12/OPTRI loaded. Number of functions:     154
 DF-basis AUG-CC-PVDZ/JKFIT    loaded. Number of functions:     204

 Screening thresholds:   THRAO=  1.00D-10  THRMO=  1.00D-10  THRPROD=  1.00D-10
                         THRSW=  1.00D-07  THROV=  1.00D-12  THRAOF12= 1.00D-08

 CPU time for Fock operators                      0.89 sec

 Construction of ABS:
 Smallest eigenvalue of S          3.97E-03  (threshold= 1.00E-08)
 Ratio eigmin/eigmax               8.48E-04  (threshold= 1.00E-09)
 Smallest eigenvalue of S kept     3.97E-03  (threshold= 3.97E-03, 0 functions deleted, 154 kept)

 Construction of CABS:
 Smallest eigenvalue of S          1.13E-05  (threshold= 1.00E-08)
 Ratio eigmin/eigmax               1.13E-05  (threshold= 1.00E-09)
 Smallest eigenvalue of S kept     1.13E-05  (threshold= 1.13E-05, 0 functions deleted, 154 kept)

 CPU time for CABS singles                        0.01 sec

 CABS-singles contribution of  -0.00571855 patched into reference energy.
 New reference energy        -137.80649164

 AO(A)-basis ORBITAL           loaded. Number of functions:      69
 RI(R)-basis CC-PVDZ-F12/OPTRI loaded. Number of functions:     154
 DF-basis AUG-CC-PVDZ/MP2FIT   loaded. Number of functions:     167

 Screening thresholds:   THRAO=  1.00D-10  THRMO=  1.00D-10  THRPROD=  1.00D-10
                         THRSW=  1.00D-07  THROV=  1.00D-12  THRAOF12= 1.00D-08

 CPU time for 3-index integral evaluation         0.44 sec
 CPU time for fitting                             0.01 sec ( 8266.3 MFLOP/sec)
 CPU time for tilde quantities                    0.01 sec (10307.8 MFLOP/sec)
 CPU time for assembly                            0.01 sec (77487.8 MFLOP/sec)
 CPU time for tranop_f12                          0.05 sec (20899.9 MFLOP/sec)
 CPU time for f12 integrals (total)               1.18 sec, Elapsed time:      1.26 sec
 CPU time for f12 matrices (total)                0.01 sec, Elapsed time:      0.03 sec

 Diagonal F12 approximation with fixed coefficients:  TSING= 0.500,  TTRIP= 0.250 (scaled by -1/beta)

 DF-MP2-F12 energy corrections:
 ==============================
 Approx.                                    Singlet             Triplet             Total
 DF-MP2-F12/3*C(DX,FIX)                -0.077588729729     -0.015952410606     -0.093541140336
 DF-MP2-F12/3*C(FIX)                   -0.068686878455     -0.015068348094     -0.083755226550
 DF-MP2-F12/3C(FIX)                    -0.069340493530     -0.015820910918     -0.085161404448

 DF-MP2-F12 correlation energies:
 ================================
 Approx.                                    Singlet             Triplet             Ecorr            Total Energy
 DF-MP2                                -0.226978792587     -0.132854299277     -0.359833091864   -138.166324734485
 DF-MP2-F12/3*C(DX,FIX)                -0.304567522316     -0.148806709883     -0.453374232199   -138.259865874821
 DF-MP2-F12/3*C(FIX)                   -0.295665671042     -0.147922647371     -0.443588318413   -138.250079961035
 DF-MP2-F12/3C(FIX)                    -0.296319286117     -0.148675210194     -0.444994496312   -138.251486138933

 SCS-DF-MP2 energies (F_SING= 1.20000  F_TRIP= 0.62222  F_PARALLEL= 0.33333):
 ============================================================================
 SCS-DF-MP2                            -0.355039448432   -138.161531091053
 SCS-DF-MP2-F12/3*C(DX,FIX)            -0.458071868484   -138.264563511106
 SCS-DF-MP2-F12/3*C(FIX)               -0.446839563615   -138.253331206236
 SCS-DF-MP2-F12/3C(FIX)                -0.448092163017   -138.254583805638

 Symmetry restored.
 Symmetry transformation completed.

 Number of N-1 electron functions:               6
 Number of N-2 electron functions:              21
 Number of singly external CSFs:               229
 Number of doubly external CSFs:             35788
 Total number of CSFs:                       36018

 Length of J-op  integral file:              15.24 MB
 Length of K-op  integral file:              18.55 MB
 Length of 3-ext integral record:             0.00 MB

 Memory could be reduced to 1.16 Mwords without degradation in triples

 Integral transformation finished. Total CPU:   0.04 sec, npass=  1  Memory used:   0.52 MW

 Reference energy:                   -137.80649164

 Adding F12 terms to K(Cij), methodcc=6,  factor= 1.0

 ITER.      SQ.NORM     CORR.ENERGY   TOTAL ENERGY   ENERGY CHANGE        DEN1      VAR(S)    VAR(P)  DIIS     TIME  TIME/IT
   1      1.09664790    -0.36612802  -138.17261967    -0.00619377     0.00693516  0.34D-02  0.26D-02  1  1     2.24     0.05
   2      1.10720542    -0.36675133  -138.17324297    -0.00062330    -0.01008906  0.97D-04  0.62D-03  2  2     2.29     0.05
   3      1.11468091    -0.36770622  -138.17419786    -0.00095489    -0.00276694  0.14D-03  0.90D-04  3  3     2.34     0.05
   4      1.11917924    -0.36788326  -138.17437491    -0.00017705    -0.00150770  0.15D-04  0.25D-04  4  4     2.39     0.05
   5      1.12187984    -0.36793677  -138.17442841    -0.00005351    -0.00048650  0.22D-05  0.40D-05  5  5     2.43     0.05
   6      1.12284285    -0.36792632  -138.17441796     0.00001045    -0.00006359  0.11D-06  0.62D-06  6  6     2.48     0.05
   7      1.12303760    -0.36792654  -138.17441819    -0.00000022    -0.00002398  0.38D-07  0.12D-06  6  4     2.52     0.05
   8      1.12305065    -0.36792704  -138.17441868    -0.00000049     0.00000613  0.10D-07  0.19D-07  6  1     2.58     0.05
   9      1.12305174    -0.36792788  -138.17441952    -0.00000084     0.00000128  0.31D-08  0.25D-08  6  2     2.62     0.06
  10      1.12304926    -0.36792830  -138.17441994    -0.00000042     0.00000019  0.51D-09  0.45D-09  6  3     2.68     0.06
  11      1.12304797    -0.36792839  -138.17442003    -0.00000009     0.00000015  0.17D-09  0.68D-10  6  5     2.73     0.06
  12      1.12304684    -0.36792852  -138.17442017    -0.00000014     0.00000019  0.21D-10  0.16D-10  6  6     2.77     0.06
  13      1.12304567    -0.36792857  -138.17442021    -0.00000005     0.00000014  0.53D-11  0.22D-11  6  1     2.83     0.06
  14      1.12304506    -0.36792861  -138.17442025    -0.00000004     0.00000013  0.34D-12  0.37D-12  6  4     2.88     0.06
  15      1.12304488    -0.36792861  -138.17442026    -0.00000001     0.00000002  0.75D-13  0.94D-13  6  2     2.93     0.06
  16      1.12304478    -0.36792862  -138.17442026    -0.00000000     0.00000002  0.75D-14  0.16D-13  6  3     2.99     0.06
  17      1.12304476    -0.36792862  -138.17442026    -0.00000000     0.00000000  0.14D-14  0.19D-14  6  5     3.04     0.06
  18      1.12304476    -0.36792862  -138.17442026     0.00000000    -0.00000000  0.40D-15  0.37D-15  6  6     3.09     0.06
  19      1.12304475    -0.36792862  -138.17442026     0.00000000    -0.00000000  0.15D-15  0.92D-16  6  1     3.14     0.06
  20      1.12304475    -0.36792862  -138.17442026     0.00000000    -0.00000000  0.25D-16  0.22D-16  6  4     3.19     0.06
  21      1.12304475    -0.36792862  -138.17442026     0.00000000     0.00000000  0.83D-17  0.41D-17  6  2     3.25     0.06
  22      1.12304475    -0.36792862  -138.17442026     0.00000000    -0.00000000  0.61D-18  0.77D-18  6  5     3.30     0.06
  23      1.12304475    -0.36792862  -138.17442026     0.00000000     0.00000000  0.11D-18  0.38D-19  6  3     3.35     0.06
  24      1.12304475    -0.36792862  -138.17442026     0.00000000    -0.00000000  0.34D-19  0.88D-20  6  6     3.40     0.06
  25      1.12304475    -0.36792862  -138.17442026     0.00000000    -0.00000000  0.47D-20  0.19D-20  6  1     3.45     0.06
  26      1.12304475    -0.36792862  -138.17442026     0.00000000    -0.00000000  0.11D-20  0.27D-21  6  4     3.50     0.06
  27      1.12304475    -0.36792862  -138.17442026    -0.00000000     0.00000000  0.13D-21  0.51D-22  6  2     3.56     0.06

 Norm of t1 vector:      0.09230781      S-energy:     0.00000000      T1 diagnostic:  0.01884225
                                                                       D1 diagnostic:  0.05646129

 Doubles amplitudes (print threshold =  0.500E-01):

         I         J         SYM. A    SYM. B    A         B      T(IJ, AB)

         5         5         2         2         1         1     -0.05978648

 Adding energy correction from Wij-K(Fij), methodcc=6  factor= 1.0

  CCSD correlation energy              -0.367928618590
  MP2-F12 correction (uncoupled)       -0.080535838280
  C*T doubles correction               -0.002589137945
  f12b correction                       0.010332178480


 Total CPU time for triples:      0.27 sec


 RESULTS
 =======

  Reference energy                   -137.800773097247
  F12 singles correction               -0.005718545374

 F12 singles corrections added to reference energy

  New reference energy               -137.806491642621

  F12a singlet correction              -0.067986848097
  F12a triplet correction              -0.015138128128
  F12a total correction                -0.083124976225

 F12a corrections for ansatz F12/3C(FIX) added to CCSD energy

  CCSD-F12a singlet pair energy        -0.317259943520
  CCSD-F12a triplet pair energy        -0.133793651296
  CCSD-F12a correlation energy         -0.451053594815

  Triples (T) contribution             -0.013378893956
  Total correlation energy             -0.464432488771

  CCSD-F12a total energy             -138.257545237436
  CCSD[T]-F12a energy                -138.272346684402
  CCSD-T-F12a energy                 -138.270440966252
 !CCSD(T)-F12a total energy          -138.270924131392

 F12b corrections for ansatz F12/3C(FIX) added to CCSD(T)-F12a energy

  CCSD-F12b singlet pair energy        -0.307902223267
  CCSD-F12b triplet pair energy        -0.132819193068
  CCSD-F12b correlation energy         -0.440721416335

  Triples (T) contribution             -0.013378893956
  Total correlation energy             -0.454100310291

  CCSD-F12b total energy             -138.247213058957
  CCSD[T]-F12b energy                -138.262014505923
  CCSD-T-F12b energy                 -138.260108787772
 !CCSD(T)-F12b total energy          -138.260591952912

 Timing summary (sec):

 STEP                 CPU(USER)    SYS     CPU(TOT)    WALL
 Transformation          0.04      0.01      0.05      0.04
 CCSD iterations         1.39      0.13      1.52      1.55
 Triples                 0.27      0.01      0.28      0.26
 MP2-F12                 2.13      0.10      2.23      2.51
 F12b energy             0.02      0.00      0.02      0.04

 Program statistics:

 Available memory in ccsd:              1999999744
 Min. memory needed in ccsd:                136839
 Max. memory used in ccsd:                  163083
 Max. memory used in cckext:                208330 (28 integral passes)



 **********************************************************************************************************************************
 DATASETS  * FILE   NREC   LENGTH (MB)   RECORD NAMES
              1      20       45.77       500      610      700      900      950      970     1000      129      960     1100   
                                          VAR    BASINP    GEOM    SYMINP    ZMAT    AOBASIS   BASIS     P2S    ABASIS      S 
                                         1400     1410     1200     1210     1080     1600     1650     1300     1700     1380   
                                           T        V       H0       H01     AOSYM     SMH    MOLCAS    ERIS     OPER     JKOP   

              2       6        2.90       700     1000      520     2100     7360     7350   
                                         GEOM     BASIS   MCVARS     RHF    F12ABS    EF12   

 PROGRAMS   *        TOTAL   CCSD(T)    HF-SCF       INT
 CPU TIMES  *         5.16      3.89      0.25      0.88
 REAL TIME  *         7.42 SEC
 DISK USED  *        97.74 MB
 **********************************************************************************************************************************
 SETTING EE(1)          =      -138.26059195  AU                              


 Computing numerical gradient using default procedure for command CCSD(T)-F12

 *** Long output written to logfile /home/mdavis/f12eom_optimizer/tests/slurm/molpro_step.log ***


 Running default procedure: HF-SCF000  CCSD(T)-F12


 Generated   3 symmetrical displacements

 Numerical gradient for CCSD(T)-F12

 Total Energy          -138.26059195  Dipole moments:    0.000000    0.000000    0.000000

 Atom          dE/dx               dE/dy               dE/dz                  d2E/dx2             d2E/dy2             d2E/dz2
   1        -0.015103145         0.002641441         0.000000000            0.000000000         0.000000000         0.000000000
   2         0.021018340         0.047097972        -0.000000000            0.000000000         0.000000000         0.000000000
   3        -0.005915195        -0.049739413         0.000000000            0.000000000         0.000000000         0.000000000

 Recomputing wavefunction at initial geometry


 **********************************************************************************************************************************
 DATASETS  * FILE   NREC   LENGTH (MB)   RECORD NAMES
              1      21       45.99       500      610      700      900      701      950      970     1000      129      960   
                                          VAR    BASINP    GEOM    SYMINP    GEOM     ZMAT    AOBASIS   BASIS     P2S    ABASIS    
                                         1100     1400     1410     1200     1210     1080     1600     1650     1300     1700   
                                           S        T        V       H0       H01     AOSYM     SMH    MOLCAS    ERIS     OPER   
                                         1380   
                                         JKOP   

              2       8        3.12       700     1000      520     2100     7360     7350      701     5600   
                                         GEOM     BASIS   MCVARS     RHF    F12ABS    EF12     GEOM     GINFO   

 PROGRAMS   *        TOTAL    FORCES    HF-SCF       INT   CCSD(T)    HF-SCF       INT
 CPU TIMES  *        41.35      3.86      0.04     32.29      3.89      0.25      0.88
 REAL TIME  *        51.04 SEC
 DISK USED  *       100.73 MB
 **********************************************************************************************************************************
 EE(1)            =     -138.260591952912 AU
 GRADX(1:3)       = [     -0.015103145279    0.021018340166   -0.005915194887] AU
 GRADY(1:3)       = [      0.002641440563    0.047097972362   -0.049739412925] AU
 GRADZ(1:3)       = [      0.000000000000   -0.000000000000    0.000000000000] AU

 CCSD(T)-F12/cc-pVDZ-F12 energy=   -138.260591952912

     CCSD(T)-F12          HF-SCF     CCSD(T)-F12          HF-SCF
   -138.26059195   -137.80077310   -138.26059195   -137.80077310
 **********************************************************************************************************************************
 Molpro calculation terminated
