
Scratch directory: /scratch/mdavis/PSI4_2022-08-18_12:51:44.483727103/

         ----------------------------------------------------------
                                   FINDIF
                     R. A. King and Jonathon Misiewicz
         ----------------------------------------------------------

  Using finite-differences of energies to determine gradients.
    Generating geometries for use with 3-point formula.
    Displacement size will be 5.00e-03.
    Number of atoms is 3.
    Number of symmetric SALCs is 3.
    Translations projected? 1. Rotations projected? 1.
    Number of geometries (including reference) is 7.
 7 displacements needed ...

  //>>>>>>>>>>>>>>>>>>>>>>>>>>>>>>>>>>>//
  //    FiniteDifference Computations  //
  //<<<<<<<<<<<<<<<<<<<<<<<<<<<<<<<<<<<//


    -----------------------------------------------------------------------
          Psi4: An Open-Source Ab Initio Electronic Structure Package
                               Psi4 1.6.1 release

                         Git: Rev {HEAD} 5b9f6e3 


    D. G. A. Smith, L. A. Burns, A. C. Simmonett, R. M. Parrish,
    M. C. Schieber, R. Galvelis, P. Kraus, H. Kruse, R. Di Remigio,
    A. Alenaizan, A. M. James, S. Lehtola, J. P. Misiewicz, M. Scheurer,
    R. A. Shaw, J. B. Schriber, Y. Xie, Z. L. Glick, D. A. Sirianni,
    J. S. O'Brien, J. M. Waldrop, A. Kumar, E. G. Hohenstein,
    B. P. Pritchard, B. R. Brooks, H. F. Schaefer III, A. Yu. Sokolov,
    K. Patkowski, A. E. DePrince III, U. Bozkaya, R. A. King,
    F. A. Evangelista, J. M. Turney, T. D. Crawford, C. D. Sherrill,
    J. Chem. Phys. 152(18) 184108 (2020). https://doi.org/10.1063/5.0006002

                            Additional Code Authors
    E. T. Seidl, C. L. Janssen, E. F. Valeev, M. L. Leininger,
    J. F. Gonthier, R. M. Richard, H. R. McAlexander, M. Saitow, X. Wang,
    P. Verma, M. H. Lechner, and A. Jiang

             Previous Authors, Complete List of Code Contributors,
                       and Citations for Specific Modules
    https://github.com/psi4/psi4/blob/master/codemeta.json
    https://github.com/psi4/psi4/graphs/contributors
    http://psicode.org/psi4manual/master/introduction.html#citing-psifour

    -----------------------------------------------------------------------


    Psi4 started on: Thursday, 18 August 2022 12:51PM

    Process ID: 148537
    Host:       node8
    PSIDATADIR: /home/mdavis/anaconda3/envs/p4env/share/psi4
    Memory:     500.0 MiB
    Threads:    1
    
  ==> Input QCSchema <==

--------------------------------------------------------------------------
{'driver': 'energy',
 'extras': {'psiapi': True, 'wfn_qcvars_only': True},
 'id': None,
 'keywords': {'DERTYPE': 'NONE',
              'E_CONVERGENCE': 1e-08,
              'FREEZE_CORE': 'TRUE',
              'PARENT_SYMMETRY': 'Cs(Z)',
              'REFERENCE': 'ROHF',
              'ROOTS_PER_IRREP': [0, 1],
              'SCF__D_CONVERGENCE': 1e-10,
              'SCF__E_CONVERGENCE': 1e-10,
              'function_kwargs': {}},
 'model': {'basis': 'aug-cc-pvdz', 'method': 'ccsd'},
 'molecule': {'atom_labels': ['', '', ''],
              'atomic_numbers': [1, 6, 9],
              'fix_com': True,
              'fix_orientation': True,
              'fragment_charges': [0.0],
              'fragment_multiplicities': [1],
              'fragments': [[0, 1, 2]],
              'geometry': [-1.4422474354707318, 2.7550731902522476, 0.0, 0.18637294655370262, 1.4235415823285547, 0.0,
                           -0.04121095251012666, -1.0453052577420383, 0.0],
              'mass_numbers': [1, 12, 19],
              'masses': [1.00782503223, 12.0, 18.99840316273],
              'molecular_charge': 0.0,
              'molecular_multiplicity': 1,
              'name': 'CFH',
              'provenance': {'creator': 'QCElemental',
                             'routine': 'qcelemental.molparse.from_string',
                             'version': 'v0.25.0'},
              'real': [True, True, True],
              'schema_name': 'qcschema_molecule',
              'schema_version': 2,
              'symbols': ['H', 'C', 'F'],
              'validated': True},
 'protocols': {'stdout': True},
 'provenance': {'creator': 'QCElemental', 'routine': 'qcelemental.models.results', 'version': 'v0.25.0'},
 'schema_name': 'qcschema_input',
 'schema_version': 1}
--------------------------------------------------------------------------

Scratch directory: /scratch/mdavis/PSI4_2022-08-18_12:51:44.483727103/

*** tstart() called on node8
*** at Thu Aug 18 12:51:50 2022

   => Loading Basis Set <=

    Name: AUG-CC-PVDZ
    Role: ORBITAL
    Keyword: BASIS
    atoms 1 entry H          line    40 file /home/mdavis/anaconda3/envs/p4env/share/psi4/basis/aug-cc-pvdz.gbs 
    atoms 2 entry C          line   182 file /home/mdavis/anaconda3/envs/p4env/share/psi4/basis/aug-cc-pvdz.gbs 
    atoms 3 entry F          line   290 file /home/mdavis/anaconda3/envs/p4env/share/psi4/basis/aug-cc-pvdz.gbs 


         ---------------------------------------------------------
                                   SCF
               by Justin Turney, Rob Parrish, Andy Simmonett
                          and Daniel G. A. Smith
                             ROHF Reference
                        1 Threads,    500 MiB Core
         ---------------------------------------------------------

  ==> Geometry <==

    Molecular point group: cs
    Full point group: Cs

    Geometry (in Bohr), charge = 0, multiplicity = 1:

       Center              X                  Y                   Z               Mass       
    ------------   -----------------  -----------------  -----------------  -----------------
         H           -1.442247435471     2.755073190252     0.000000000000     1.007825032230
         C            0.186372946554     1.423541582329     0.000000000000    12.000000000000
         F           -0.041210952510    -1.045305257742     0.000000000000    18.998403162730

  Running in cs symmetry.

  Rotational constants: A =     23.65003  B =      1.14174  C =      1.08916 [cm^-1]
  Rotational constants: A = 709009.93690  B =  34228.46556  C =  32652.13708 [MHz]
  Nuclear repulsion =   26.854389555552174

  Charge       = 0
  Multiplicity = 1
  Electrons    = 16
  Nalpha       = 8
  Nbeta        = 8

  ==> Algorithm <==

  SCF Algorithm Type is PK.
  DIIS enabled.
  MOM disabled.
  Fractional occupation disabled.
  Guess Type is SAD.
  Energy threshold   = 1.00e-10
  Density threshold  = 1.00e-10
  Integral threshold = 1.00e-12

  ==> Primary Basis <==

  Basis Set: AUG-CC-PVDZ
    Blend: AUG-CC-PVDZ
    Number of shells: 23
    Number of basis functions: 55
    Number of Cartesian functions: 59
    Spherical Harmonics?: true
    Max angular momentum: 2

  ==> Integral Setup <==

  Using in-core PK algorithm.
   Calculation information:
      Number of atoms:                   3
      Number of AO shells:              23
      Number of primitives:             57
      Number of atomic orbitals:        59
      Number of basis functions:        55

      Integral cutoff                 1.00e-12
      Number of threads:                 1

  Performing in-core PK
  Using 2373140 doubles for integral storage.
  We computed 38226 shell quartets total.
  Whereas there are 38226 unique shell quartets.

  ==> DiskJK: Disk-Based J/K Matrices <==

    J tasked:                  Yes
    K tasked:                  Yes
    wK tasked:                  No
    Memory [MiB]:              375
    Schwarz Cutoff:          1E-12

    OpenMP threads:              1

  Minimum eigenvalue in the overlap matrix is 1.0525139139E-03.
  Reciprocal condition number of the overlap matrix is 1.9883659914E-04.
    Using symmetric orthogonalization.

  ==> Pre-Iterations <==

  SCF Guess: Superposition of Atomic Densities via on-the-fly atomic UHF (no occupation information).

   -------------------------
    Irrep   Nso     Nmo    
   -------------------------
     A'        39      39 
     A"        16      16 
   -------------------------
    Total      55      55
   -------------------------

  ==> Iterations <==

                        Total Energy        Delta E     RMS |[F,P]|

   @ROHF iter SAD:  -137.04473065513511   -1.37045e+02   0.00000e+00 
   @ROHF iter   1:  -137.73533505150905   -6.90604e-01   3.28642e-03 DIIS
   @ROHF iter   2:  -137.75305714224137   -1.77221e-02   1.25327e-03 DIIS
   @ROHF iter   3:  -137.75534358267544   -2.28644e-03   5.16682e-04 DIIS
   @ROHF iter   4:  -137.75582014995757   -4.76567e-04   1.05551e-04 DIIS
   @ROHF iter   5:  -137.75587643211082   -5.62822e-05   3.55179e-05 DIIS
   @ROHF iter   6:  -137.75588375836168   -7.32625e-06   1.03156e-05 DIIS
   @ROHF iter   7:  -137.75588427346503   -5.15103e-07   1.81106e-06 DIIS
   @ROHF iter   8:  -137.75588428777655   -1.43115e-08   3.85399e-07 DIIS
   @ROHF iter   9:  -137.75588428850750   -7.30950e-10   8.79190e-08 DIIS
   @ROHF iter  10:  -137.75588428854212   -3.46176e-11   1.65777e-08 DIIS
   @ROHF iter  11:  -137.75588428854360   -1.47793e-12   2.60984e-09 DIIS
   @ROHF iter  12:  -137.75588428854357    2.84217e-14   6.10182e-10 DIIS
   @ROHF iter  13:  -137.75588428854343    1.42109e-13   1.83400e-10 DIIS
   @ROHF iter  14:  -137.75588428854346   -2.84217e-14   4.82203e-11 DIIS
  Energy and wave function converged.


  ==> Post-Iterations <==

    Orbital Energies [Eh]
    ---------------------

    Doubly Occupied:                                                      

       1Ap   -26.379150     2Ap   -11.376637     3Ap    -1.688243  
       4Ap    -0.925963     5Ap    -0.766986     1App   -0.719368  
       6Ap    -0.701845     7Ap    -0.378790  

    Singly Occupied:                                                      

    

    Virtual:                                                              

       8Ap     0.036466     2App    0.043303     9Ap     0.086857  
      10Ap     0.113351     3App    0.141860    11Ap     0.172143  
      12Ap     0.247412    13Ap     0.263368     4App    0.284351  
      14Ap     0.306461    15Ap     0.330300     5App    0.375346  
      16Ap     0.435374    17Ap     0.477519     6App    0.516981  
      18Ap     0.518750    19Ap     0.573364    20Ap     0.626018  
       7App    0.629288    21Ap     0.730426     8App    0.847491  
      22Ap     0.873678    23Ap     0.936704    24Ap     1.077509  
       9App    1.404539    25Ap     1.409332    26Ap     1.434066  
      10App    1.438453    11App    1.553549    27Ap     1.581071  
      28Ap     1.671260    12App    1.711578    29Ap     1.767489  
      30Ap     1.820350    13App    2.004602    31Ap     2.005658  
      14App    2.219341    32Ap     2.222598    33Ap     2.277081  
      34Ap     2.435366    35Ap     2.793633    36Ap     3.429820  
      15App    4.858966    37Ap     4.859335    16App    4.943141  
      38Ap     4.981440    39Ap     5.010279  

    Final Occupation by Irrep:
             Ap   App 
    DOCC [     7,    1 ]
    SOCC [     0,    0 ]

  @ROHF Final Energy:  -137.75588428854346

   => Energetics <=

    Nuclear Repulsion Energy =             26.8543895555521743
    One-Electron Energy =                -243.3465859781838674
    Two-Electron Energy =                  78.7363121340882515
    Total Energy =                       -137.7558842885434558

Computation Completed


Properties will be evaluated at   0.000000,   0.000000,   0.000000 [a0]

Properties computed using the SCF density matrix


 Multipole Moments:

 ------------------------------------------------------------------------------------
     Multipole            Electronic (a.u.)      Nuclear  (a.u.)        Total (a.u.)
 ------------------------------------------------------------------------------------

 L = 1.  Multiply by 2.5417464519 to convert [e a0] to [Debye]
 Dipole X            :         -0.0092061           -0.6949083           -0.7041144
 Dipole Y            :         -1.6500468            1.8885754            0.2385286
 Dipole Z            :          0.0000000            0.0000000            0.0000000
 Magnitude           :                                                    0.7434198

 ------------------------------------------------------------------------------------

*** tstop() called on node8 at Thu Aug 18 12:51:51 2022
Module time:
	user time   =       1.13 seconds =       0.02 minutes
	system time =       0.04 seconds =       0.00 minutes
	total time  =          1 seconds =       0.02 minutes
Total time:
	user time   =       1.13 seconds =       0.02 minutes
	system time =       0.04 seconds =       0.00 minutes
	total time  =          1 seconds =       0.02 minutes
 MINTS: Wrapper to libmints.
   by Justin Turney

   Calculation information:
      Number of threads:                 1
      Number of atoms:                   3
      Number of AO shells:              23
      Number of SO shells:              23
      Number of primitives:             57
      Number of atomic orbitals:        59
      Number of basis functions:        55

      Number of irreps:                  2
      Integral cutoff                 1.00e-12
      Number of functions per irrep: [  39   16 ]

 OEINTS: Overlap, kinetic, potential, dipole, and quadrupole integrals
         stored in file 35.

      Computing two-electron integrals...done
      Computed 584494 non-zero two-electron integrals.
        Stored in file 33.


*** tstart() called on node8
*** at Thu Aug 18 12:51:52 2022


	Wfn Parameters:
	--------------------
	Wavefunction         = CCSD
	Number of irreps     = 2
	Number of MOs        = 55
	Number of active MOs = 53
	AO-Basis             = NONE
	Semicanonical        = false
	Reference            = ROHF
	Print Level          = 1

	IRREP	# MOs	# FZDC	# DOCC	# SOCC	# VIRT	# FZVR
	-----	-----	------	------	------	------	------
	 Ap	   39	    2	    5	    0	    32	    0
	 App	   16	    0	    1	    0	    15	    0
	Transforming integrals...
	IWL integrals will be deleted.
	(OO|OO)...
	Presorting SO-basis two-electron integrals.
	Sorting File: SO Ints (nn|nn) nbuckets = 1
	Constructing frozen core operators
	Starting first half-transformation.
	Sorting half-transformed integrals.
	First half integral transformation complete.
	Starting second half-transformation.
	Two-electron integral transformation complete.
	(OO|OV)...
	Starting second half-transformation.
	Two-electron integral transformation complete.
	(OO|VV)...
	Starting second half-transformation.
	Two-electron integral transformation complete.
	(OV|OO)...
	Starting first half-transformation.
	Sorting half-transformed integrals.
	First half integral transformation complete.
	Starting second half-transformation.
	Two-electron integral transformation complete.
	(OV|OV)...
	Starting second half-transformation.
	Two-electron integral transformation complete.
	(OV|VV)...
	Starting second half-transformation.
	Two-electron integral transformation complete.
	(VV|OO)...
	Starting first half-transformation.
	Sorting half-transformed integrals.
	First half integral transformation complete.
	Starting second half-transformation.
	Two-electron integral transformation complete.
	(VV|OV)...
	Starting second half-transformation.
	Two-electron integral transformation complete.
	(VV|VV)...
	Starting second half-transformation.
	Two-electron integral transformation complete.
	Frozen core energy     =   -119.76871399310710

	Size of irrep 0 of <ab|cd> integrals:      1.560 (MW) /     12.480 (MB)
	Size of irrep 1 of <ab|cd> integrals:      0.922 (MW) /      7.373 (MB)
	Total:                                     2.482 (MW) /     19.853 (MB)

	Size of irrep 0 of <ia|bc> integrals:      0.219 (MW) /      1.749 (MB)
	Size of irrep 1 of <ia|bc> integrals:      0.103 (MW) /      0.822 (MB)
	Total:                                     0.321 (MW) /      2.570 (MB)

	Size of irrep 0 of tIjAb amplitudes:       0.032 (MW) /      0.260 (MB)
	Size of irrep 1 of tIjAb amplitudes:       0.010 (MW) /      0.077 (MB)
	Total:                                     0.042 (MW) /      0.337 (MB)

	Nuclear Rep. energy          =     26.85438955555217
	SCF energy                   =   -137.75588428854346
	One-electron energy          =    -79.32073067284219
	Two-electron (AA) energy     =      7.09165548584136
	Two-electron (BB) energy     =      7.09165548584136
	Two-electron (AB) energy     =     20.29585985017064
	Two-electron energy          =    -44.84155985098884
	Reference energy             =   -137.75588428854377

*** tstop() called on node8 at Thu Aug 18 12:51:57 2022
Module time:
	user time   =       0.26 seconds =       0.00 minutes
	system time =       0.16 seconds =       0.00 minutes
	total time  =          5 seconds =       0.08 minutes
Total time:
	user time   =       1.69 seconds =       0.03 minutes
	system time =       0.22 seconds =       0.00 minutes
	total time  =          7 seconds =       0.12 minutes
            **************************
            *                        *
            *        CCENERGY        *
            *                        *
            **************************

    Nuclear Rep. energy (wfn)     =   26.854389555552174
    SCF energy          (wfn)     = -137.755884288543456
    Reference energy    (file100) = -137.755884288543768

    Input parameters:
    -----------------
    Wave function   =     CCSD
    Reference wfn   =     ROHF
    Brueckner       =     No
    Memory (Mbytes) =     524.3
    Maxiter         =     50
    R_Convergence   =     1.0e-07
    E_Convergence   =     1.0e-08
    Restart         =     Yes
    DIIS            =     Yes
    AO Basis        =     NONE
    ABCD            =     NEW
    Cache Level     =     2
    Cache Type      =     LOW
    Print Level     =     1
    Num. of threads =     1
    # Amps to Print =     10
    Print MP2 Amps? =     No
    Analyze T2 Amps =     No
    Print Pair Ener =     No
    Local CC        =     No
    SCS-MP2         =     False
    SCSN-MP2        =     False
    SCS-CCSD        =     False

                Solving CC Amplitude Equations
                ------------------------------
  Iter             Energy              RMS        T1Diag      D1Diag    New D1Diag    D2Diag
  ----     ---------------------    ---------   ----------  ----------  ----------   --------
     0        -0.318347766984416    0.000e+00    0.000000    0.000000    0.000000    0.000000
     1        -0.324590617204157    9.063e-02    0.014725    0.041479    0.041479    0.000000
     2        -0.335059937799110    3.287e-02    0.014342    0.040338    0.040338    0.000000
     3        -0.339299920981115    2.138e-02    0.018500    0.053203    0.053203    0.000000
     4        -0.339266756993870    7.760e-03    0.019727    0.056997    0.056997    0.000000
     5        -0.339295453747999    3.723e-03    0.020108    0.058215    0.058215    0.000000
     6        -0.339392999102772    1.647e-03    0.020092    0.058039    0.058039    0.000000
     7        -0.339397373248429    7.408e-04    0.020007    0.057662    0.057662    0.000000
     8        -0.339401992265799    3.144e-04    0.019960    0.057473    0.057473    0.000000
     9        -0.339408142324384    1.224e-04    0.019939    0.057394    0.057394    0.000000
    10        -0.339405756060533    4.547e-05    0.019932    0.057373    0.057373    0.000000
    11        -0.339406497014150    1.837e-05    0.019929    0.057364    0.057364    0.000000
    12        -0.339406715412673    6.427e-06    0.019929    0.057364    0.057364    0.000000
    13        -0.339406879199143    2.865e-06    0.019929    0.057364    0.057364    0.000000
    14        -0.339406960260800    1.178e-06    0.019929    0.057365    0.057365    0.000000
    15        -0.339406985299622    4.777e-07    0.019929    0.057365    0.057365    0.000000
    16        -0.339406988775394    2.413e-07    0.019929    0.057365    0.057365    0.000000
    17        -0.339406991733194    1.181e-07    0.019929    0.057365    0.057365    0.000000
    18        -0.339406993147719    6.595e-08    0.019929    0.057365    0.057365    0.000000

    Iterations converged.


    Largest TIA Amplitudes:
              5  32         0.0453788347
              5  33         0.0304531252
              4   5         0.0145004680
              4   6         0.0112252197
              5  34         0.0105797136
              2   5        -0.0099716073
              4   4         0.0097006238
              4   1         0.0088766860
              5  38         0.0082309400
              5  36         0.0081010131

    Largest Tia Amplitudes:
              5  32         0.0453788347
              5  33         0.0304531252
              4   5         0.0145004680
              4   6         0.0112252197
              5  34         0.0105797136
              2   5        -0.0099716073
              4   4         0.0097006238
              4   1         0.0088766860
              5  38         0.0082309400
              5  36         0.0081010131

    Largest TIJAB Amplitudes:
      5   3  32  11        -0.0097421278
      5   2  42  21        -0.0078670377
      5   3  42  22        -0.0077062823
      5   3  32   4        -0.0074823728
      5   3  32   9        -0.0074437443
      5   3  39  17         0.0072845371
      5   2  40  18        -0.0072265612
      5   2  39  17        -0.0071841296
      4   3  12   7         0.0069996217
      5   3  33  11        -0.0067633414

    Largest Tijab Amplitudes:
      5   3  32  11        -0.0097421278
      5   2  42  21        -0.0078670377
      5   3  42  22        -0.0077062823
      5   3  32   4        -0.0074823728
      5   3  32   9        -0.0074437443
      5   3  39  17         0.0072845371
      5   2  40  18        -0.0072265612
      5   2  39  17        -0.0071841296
      4   3  12   7         0.0069996217
      5   3  33  11        -0.0067633414

    Largest TIjAb Amplitudes:
      4   4  32  32        -0.0726277071
      4   4  32  33        -0.0546599836
      4   4  33  32        -0.0546599836
      4   4  33  33        -0.0410922527
      5   5  32  32        -0.0261971029
      4   4   7   7        -0.0261524601
      4   4  32  35        -0.0244477503
      4   4  35  32        -0.0244477503
      5   5  42  42        -0.0223458294
      4   4  33  35        -0.0186926924

    SCF energy       (wfn)                    = -137.755884288543456
    Reference energy (file100)                = -137.755884288543768

    Opposite-spin CCSD correlation energy     =   -0.267777130477924
    Same-spin CCSD correlation energy         =   -0.071629862773395
    Singles CCSD correlation energy           =    0.000000000103600
    CCSD correlation energy                   =   -0.339406993147719
      * CCSD total energy                     = -138.095291281691487


    Psi4 stopped on: Thursday, 18 August 2022 12:52PM
    Psi4 wall time for execution: 0:00:18.53


    -----------------------------------------------------------------------
          Psi4: An Open-Source Ab Initio Electronic Structure Package
                               Psi4 1.6.1 release

                         Git: Rev {HEAD} 5b9f6e3 


    D. G. A. Smith, L. A. Burns, A. C. Simmonett, R. M. Parrish,
    M. C. Schieber, R. Galvelis, P. Kraus, H. Kruse, R. Di Remigio,
    A. Alenaizan, A. M. James, S. Lehtola, J. P. Misiewicz, M. Scheurer,
    R. A. Shaw, J. B. Schriber, Y. Xie, Z. L. Glick, D. A. Sirianni,
    J. S. O'Brien, J. M. Waldrop, A. Kumar, E. G. Hohenstein,
    B. P. Pritchard, B. R. Brooks, H. F. Schaefer III, A. Yu. Sokolov,
    K. Patkowski, A. E. DePrince III, U. Bozkaya, R. A. King,
    F. A. Evangelista, J. M. Turney, T. D. Crawford, C. D. Sherrill,
    J. Chem. Phys. 152(18) 184108 (2020). https://doi.org/10.1063/5.0006002

                            Additional Code Authors
    E. T. Seidl, C. L. Janssen, E. F. Valeev, M. L. Leininger,
    J. F. Gonthier, R. M. Richard, H. R. McAlexander, M. Saitow, X. Wang,
    P. Verma, M. H. Lechner, and A. Jiang

             Previous Authors, Complete List of Code Contributors,
                       and Citations for Specific Modules
    https://github.com/psi4/psi4/blob/master/codemeta.json
    https://github.com/psi4/psi4/graphs/contributors
    http://psicode.org/psi4manual/master/introduction.html#citing-psifour

    -----------------------------------------------------------------------


    Psi4 started on: Thursday, 18 August 2022 12:51PM

    Process ID: 148537
    Host:       node8
    PSIDATADIR: /home/mdavis/anaconda3/envs/p4env/share/psi4
    Memory:     500.0 MiB
    Threads:    1
    
  ==> Input QCSchema <==

--------------------------------------------------------------------------
{'driver': 'energy',
 'extras': {'psiapi': True, 'wfn_qcvars_only': True},
 'id': None,
 'keywords': {'DERTYPE': 'NONE',
              'E_CONVERGENCE': 1e-08,
              'FREEZE_CORE': 'TRUE',
              'PARENT_SYMMETRY': 'Cs(Z)',
              'REFERENCE': 'ROHF',
              'ROOTS_PER_IRREP': [0, 1],
              'SCF__D_CONVERGENCE': 1e-10,
              'SCF__E_CONVERGENCE': 1e-10,
              'function_kwargs': {}},
 'model': {'basis': 'aug-cc-pvdz', 'method': 'ccsd'},
 'molecule': {'atom_labels': ['', '', ''],
              'atomic_numbers': [1, 6, 9],
              'fix_com': True,
              'fix_orientation': True,
              'fragment_charges': [0.0],
              'fragment_multiplicities': [1],
              'fragments': [[0, 1, 2]],
              'geometry': [-1.4467852283892444, 2.7554692538507646, 0.0, 0.18693600492596527, 1.423490401415999, 0.0,
                           -0.04132587791486186, -1.0452939405729118, 0.0],
              'mass_numbers': [1, 12, 19],
              'masses': [1.00782503223, 12.0, 18.99840316273],
              'molecular_charge': 0.0,
              'molecular_multiplicity': 1,
              'name': 'CFH',
              'provenance': {'creator': 'QCElemental',
                             'routine': 'qcelemental.molparse.from_string',
                             'version': 'v0.25.0'},
              'real': [True, True, True],
              'schema_name': 'qcschema_molecule',
              'schema_version': 2,
              'symbols': ['H', 'C', 'F'],
              'validated': True},
 'protocols': {'stdout': True},
 'provenance': {'creator': 'QCElemental', 'routine': 'qcelemental.models.results', 'version': 'v0.25.0'},
 'schema_name': 'qcschema_input',
 'schema_version': 1}
--------------------------------------------------------------------------

Scratch directory: /scratch/mdavis/PSI4_2022-08-18_12:51:44.483727103/

*** tstart() called on node8
*** at Thu Aug 18 12:52:09 2022

   => Loading Basis Set <=

    Name: AUG-CC-PVDZ
    Role: ORBITAL
    Keyword: BASIS
    atoms 1 entry H          line    40 file /home/mdavis/anaconda3/envs/p4env/share/psi4/basis/aug-cc-pvdz.gbs 
    atoms 2 entry C          line   182 file /home/mdavis/anaconda3/envs/p4env/share/psi4/basis/aug-cc-pvdz.gbs 
    atoms 3 entry F          line   290 file /home/mdavis/anaconda3/envs/p4env/share/psi4/basis/aug-cc-pvdz.gbs 


         ---------------------------------------------------------
                                   SCF
               by Justin Turney, Rob Parrish, Andy Simmonett
                          and Daniel G. A. Smith
                             ROHF Reference
                        1 Threads,    500 MiB Core
         ---------------------------------------------------------

  ==> Geometry <==

    Molecular point group: cs
    Full point group: Cs

    Geometry (in Bohr), charge = 0, multiplicity = 1:

       Center              X                  Y                   Z               Mass       
    ------------   -----------------  -----------------  -----------------  -----------------
         H           -1.446785228389     2.755469253851     0.000000000000     1.007825032230
         C            0.186936004926     1.423490401416     0.000000000000    12.000000000000
         F           -0.041325877915    -1.045293940573     0.000000000000    18.998403162730

  Running in cs symmetry.

  Rotational constants: A =     23.50308  B =      1.14174  C =      1.08884 [cm^-1]
  Rotational constants: A = 704604.55371  B =  34228.46444  C =  32642.73702 [MHz]
  Nuclear repulsion =   26.847621749079252

  Charge       = 0
  Multiplicity = 1
  Electrons    = 16
  Nalpha       = 8
  Nbeta        = 8

  ==> Algorithm <==

  SCF Algorithm Type is PK.
  DIIS enabled.
  MOM disabled.
  Fractional occupation disabled.
  Guess Type is SAD.
  Energy threshold   = 1.00e-10
  Density threshold  = 1.00e-10
  Integral threshold = 1.00e-12

  ==> Primary Basis <==

  Basis Set: AUG-CC-PVDZ
    Blend: AUG-CC-PVDZ
    Number of shells: 23
    Number of basis functions: 55
    Number of Cartesian functions: 59
    Spherical Harmonics?: true
    Max angular momentum: 2

  ==> Integral Setup <==

  Using in-core PK algorithm.
   Calculation information:
      Number of atoms:                   3
      Number of AO shells:              23
      Number of primitives:             57
      Number of atomic orbitals:        59
      Number of basis functions:        55

      Integral cutoff                 1.00e-12
      Number of threads:                 1

  Performing in-core PK
  Using 2373140 doubles for integral storage.
  We computed 38226 shell quartets total.
  Whereas there are 38226 unique shell quartets.

  ==> DiskJK: Disk-Based J/K Matrices <==

    J tasked:                  Yes
    K tasked:                  Yes
    wK tasked:                  No
    Memory [MiB]:              375
    Schwarz Cutoff:          1E-12

    OpenMP threads:              1

  Minimum eigenvalue in the overlap matrix is 1.0579432706E-03.
  Reciprocal condition number of the overlap matrix is 1.9990352130E-04.
    Using symmetric orthogonalization.

  ==> Pre-Iterations <==

  SCF Guess: Superposition of Atomic Densities via on-the-fly atomic UHF (no occupation information).

   -------------------------
    Irrep   Nso     Nmo    
   -------------------------
     A'        39      39 
     A"        16      16 
   -------------------------
    Total      55      55
   -------------------------

  ==> Iterations <==

                        Total Energy        Delta E     RMS |[F,P]|

   @ROHF iter SAD:  -137.04411345004053   -1.37044e+02   0.00000e+00 
   @ROHF iter   1:  -137.73546294056192   -6.91349e-01   3.28856e-03 DIIS
   @ROHF iter   2:  -137.75318975457941   -1.77268e-02   1.25658e-03 DIIS
   @ROHF iter   3:  -137.75548407723414   -2.29432e-03   5.16665e-04 DIIS
   @ROHF iter   4:  -137.75596036341585   -4.76286e-04   1.05447e-04 DIIS
   @ROHF iter   5:  -137.75601644518707   -5.60818e-05   3.54703e-05 DIIS
   @ROHF iter   6:  -137.75602374180568   -7.29662e-06   1.03182e-05 DIIS
   @ROHF iter   7:  -137.75602425685145   -5.15046e-07   1.81054e-06 DIIS
   @ROHF iter   8:  -137.75602427116218   -1.43107e-08   3.84268e-07 DIIS
   @ROHF iter   9:  -137.75602427188969   -7.27510e-10   8.73597e-08 DIIS
   @ROHF iter  10:  -137.75602427192405   -3.43618e-11   1.64643e-08 DIIS
   @ROHF iter  11:  -137.75602427192524   -1.19371e-12   2.53025e-09 DIIS
   @ROHF iter  12:  -137.75602427192530   -5.68434e-14   5.50985e-10 DIIS
   @ROHF iter  13:  -137.75602427192524    5.68434e-14   1.62394e-10 DIIS
   @ROHF iter  14:  -137.75602427192536   -1.13687e-13   4.61591e-11 DIIS
  Energy and wave function converged.


  ==> Post-Iterations <==

    Orbital Energies [Eh]
    ---------------------

    Doubly Occupied:                                                      

       1Ap   -26.379184     2Ap   -11.376939     3Ap    -1.688311  
       4Ap    -0.925786     5Ap    -0.766798     1App   -0.719413  
       6Ap    -0.701435     7Ap    -0.378937  

    Singly Occupied:                                                      

    

    Virtual:                                                              

       8Ap     0.036490     2App    0.043302     9Ap     0.086861  
      10Ap     0.113370     3App    0.141857    11Ap     0.172112  
      12Ap     0.247430    13Ap     0.263134     4App    0.284357  
      14Ap     0.306376    15Ap     0.330070     5App    0.375155  
      16Ap     0.435366    17Ap     0.477637     6App    0.517131  
      18Ap     0.518713    19Ap     0.573454    20Ap     0.625627  
       7App    0.629068    21Ap     0.730133     8App    0.847378  
      22Ap     0.873413    23Ap     0.935967    24Ap     1.077247  
       9App    1.404523    25Ap     1.409137    26Ap     1.434206  
      10App    1.438400    11App    1.553319    27Ap     1.580943  
      28Ap     1.671546    12App    1.711473    29Ap     1.767528  
      30Ap     1.820332    31Ap     2.004530    13App    2.004623  
      14App    2.218009    32Ap     2.220490    33Ap     2.276763  
      34Ap     2.433459    35Ap     2.789296    36Ap     3.429386  
      15App    4.858849    37Ap     4.859269    16App    4.943093  
      38Ap     4.981386    39Ap     5.010098  

    Final Occupation by Irrep:
             Ap   App 
    DOCC [     7,    1 ]
    SOCC [     0,    0 ]

  @ROHF Final Energy:  -137.75602427192536

   => Energetics <=

    Nuclear Repulsion Energy =             26.8476217490792521
    One-Electron Energy =                -243.3336871812702498
    Two-Electron Energy =                  78.7300411602656425
    Total Energy =                       -137.7560242719253552

Computation Completed


Properties will be evaluated at   0.000000,   0.000000,   0.000000 [a0]

Properties computed using the SCF density matrix


 Multipole Moments:

 ------------------------------------------------------------------------------------
     Multipole            Electronic (a.u.)      Nuclear  (a.u.)        Total (a.u.)
 ------------------------------------------------------------------------------------

 L = 1.  Multiply by 2.5417464519 to convert [e a0] to [Debye]
 Dipole X            :         -0.0055908           -0.6971021           -0.7026929
 Dipole Y            :         -1.6509963            1.8887662            0.2377699
 Dipole Z            :          0.0000000            0.0000000            0.0000000
 Magnitude           :                                                    0.7418300

 ------------------------------------------------------------------------------------

*** tstop() called on node8 at Thu Aug 18 12:52:10 2022
Module time:
	user time   =       0.92 seconds =       0.02 minutes
	system time =       0.01 seconds =       0.00 minutes
	total time  =          1 seconds =       0.02 minutes
Total time:
	user time   =       4.82 seconds =       0.08 minutes
	system time =       1.26 seconds =       0.02 minutes
	total time  =         20 seconds =       0.33 minutes
 MINTS: Wrapper to libmints.
   by Justin Turney

   Calculation information:
      Number of threads:                 1
      Number of atoms:                   3
      Number of AO shells:              23
      Number of SO shells:              23
      Number of primitives:             57
      Number of atomic orbitals:        59
      Number of basis functions:        55

      Number of irreps:                  2
      Integral cutoff                 1.00e-12
      Number of functions per irrep: [  39   16 ]

 OEINTS: Overlap, kinetic, potential, dipole, and quadrupole integrals
         stored in file 35.

      Computing two-electron integrals...done
      Computed 584494 non-zero two-electron integrals.
        Stored in file 33.


*** tstart() called on node8
*** at Thu Aug 18 12:52:10 2022


	Wfn Parameters:
	--------------------
	Wavefunction         = CCSD
	Number of irreps     = 2
	Number of MOs        = 55
	Number of active MOs = 53
	AO-Basis             = NONE
	Semicanonical        = false
	Reference            = ROHF
	Print Level          = 1

	IRREP	# MOs	# FZDC	# DOCC	# SOCC	# VIRT	# FZVR
	-----	-----	------	------	------	------	------
	 Ap	   39	    2	    5	    0	    32	    0
	 App	   16	    0	    1	    0	    15	    0
	Transforming integrals...
	IWL integrals will be deleted.
	(OO|OO)...
	Presorting SO-basis two-electron integrals.
	Sorting File: SO Ints (nn|nn) nbuckets = 1
	Constructing frozen core operators
	Starting first half-transformation.
	Sorting half-transformed integrals.
	First half integral transformation complete.
	Starting second half-transformation.
	Two-electron integral transformation complete.
	(OO|OV)...
	Starting second half-transformation.
	Two-electron integral transformation complete.
	(OO|VV)...
	Starting second half-transformation.
	Two-electron integral transformation complete.
	(OV|OO)...
	Starting first half-transformation.
	Sorting half-transformed integrals.
	First half integral transformation complete.
	Starting second half-transformation.
	Two-electron integral transformation complete.
	(OV|OV)...
	Starting second half-transformation.
	Two-electron integral transformation complete.
	(OV|VV)...
	Starting second half-transformation.
	Two-electron integral transformation complete.
	(VV|OO)...
	Starting first half-transformation.
	Sorting half-transformed integrals.
	First half integral transformation complete.
	Starting second half-transformation.
	Two-electron integral transformation complete.
	(VV|OV)...
	Starting second half-transformation.
	Two-electron integral transformation complete.
	(VV|VV)...
	Starting second half-transformation.
	Two-electron integral transformation complete.
	Frozen core energy     =   -119.76657713323591

	Size of irrep 0 of <ab|cd> integrals:      1.560 (MW) /     12.480 (MB)
	Size of irrep 1 of <ab|cd> integrals:      0.922 (MW) /      7.373 (MB)
	Total:                                     2.482 (MW) /     19.853 (MB)

	Size of irrep 0 of <ia|bc> integrals:      0.219 (MW) /      1.749 (MB)
	Size of irrep 1 of <ia|bc> integrals:      0.103 (MW) /      0.822 (MB)
	Total:                                     0.321 (MW) /      2.570 (MB)

	Size of irrep 0 of tIjAb amplitudes:       0.032 (MW) /      0.260 (MB)
	Size of irrep 1 of tIjAb amplitudes:       0.010 (MW) /      0.077 (MB)
	Total:                                     0.042 (MW) /      0.337 (MB)

	Nuclear Rep. energy          =     26.84762174907925
	SCF energy                   =   -137.75602427192536
	One-electron energy          =    -79.31277934149072
	Two-electron (AA) energy     =      7.09098579163708
	Two-electron (BB) energy     =      7.09098579163708
	Two-electron (AB) energy     =     20.29373887044835
	Two-electron energy          =    -44.83706888776821
	Reference energy             =   -137.75602427192487

*** tstop() called on node8 at Thu Aug 18 12:52:11 2022
Module time:
	user time   =       0.22 seconds =       0.00 minutes
	system time =       0.17 seconds =       0.00 minutes
	total time  =          1 seconds =       0.02 minutes
Total time:
	user time   =       5.35 seconds =       0.09 minutes
	system time =       1.43 seconds =       0.02 minutes
	total time  =         21 seconds =       0.35 minutes
            **************************
            *                        *
            *        CCENERGY        *
            *                        *
            **************************

    Nuclear Rep. energy (wfn)     =   26.847621749079252
    SCF energy          (wfn)     = -137.756024271925355
    Reference energy    (file100) = -137.756024271924872

    Input parameters:
    -----------------
    Wave function   =     CCSD
    Reference wfn   =     ROHF
    Brueckner       =     No
    Memory (Mbytes) =     524.3
    Maxiter         =     50
    R_Convergence   =     1.0e-07
    E_Convergence   =     1.0e-08
    Restart         =     Yes
    DIIS            =     Yes
    AO Basis        =     NONE
    ABCD            =     NEW
    Cache Level     =     2
    Cache Type      =     LOW
    Print Level     =     1
    Num. of threads =     1
    # Amps to Print =     10
    Print MP2 Amps? =     No
    Analyze T2 Amps =     No
    Print Pair Ener =     No
    Local CC        =     No
    SCS-MP2         =     False
    SCSN-MP2        =     False
    SCS-CCSD        =     False

                Solving CC Amplitude Equations
                ------------------------------
  Iter             Energy              RMS        T1Diag      D1Diag    New D1Diag    D2Diag
  ----     ---------------------    ---------   ----------  ----------  ----------   --------
     0        -0.318393814828213    0.000e+00    0.000000    0.000000    0.000000    0.000000
     1        -0.324639961691248    9.066e-02    0.014729    0.041483    0.041483    0.000000
     2        -0.335116744343540    3.288e-02    0.014345    0.040335    0.040335    0.000000
     3        -0.339359669411867    2.138e-02    0.018503    0.053195    0.053195    0.000000
     4        -0.339326184814269    7.744e-03    0.019729    0.056982    0.056982    0.000000
     5        -0.339354338726510    3.713e-03    0.020110    0.058199    0.058199    0.000000
     6        -0.339451333797236    1.640e-03    0.020095    0.058028    0.058028    0.000000
     7        -0.339455589019769    7.383e-04    0.020011    0.057653    0.057653    0.000000
     8        -0.339460141284474    3.136e-04    0.019963    0.057466    0.057466    0.000000
     9        -0.339466291825490    1.222e-04    0.019943    0.057387    0.057387    0.000000
    10        -0.339463909424278    4.535e-05    0.019936    0.057366    0.057366    0.000000
    11        -0.339464647407570    1.832e-05    0.019933    0.057357    0.057357    0.000000
    12        -0.339464864797869    6.405e-06    0.019933    0.057357    0.057357    0.000000
    13        -0.339465027852330    2.853e-06    0.019932    0.057357    0.057357    0.000000
    14        -0.339465108537114    1.172e-06    0.019932    0.057358    0.057358    0.000000
    15        -0.339465133567824    4.745e-07    0.019932    0.057358    0.057358    0.000000
    16        -0.339465137000877    2.395e-07    0.019932    0.057358    0.057358    0.000000
    17        -0.339465139928758    1.170e-07    0.019932    0.057358    0.057358    0.000000
    18        -0.339465141316910    6.522e-08    0.019932    0.057358    0.057358    0.000000

    Iterations converged.


    Largest TIA Amplitudes:
              5  32         0.0453769652
              5  33         0.0304461910
              4   5         0.0145605443
              4   6         0.0112115956
              5  34         0.0105745781
              2   5        -0.0100165233
              4   4         0.0097371224
              4   1         0.0088710609
              5  38         0.0082281397
              5  36         0.0080988894

    Largest Tia Amplitudes:
              5  32         0.0453769652
              5  33         0.0304461910
              4   5         0.0145605443
              4   6         0.0112115956
              5  34         0.0105745781
              2   5        -0.0100165233
              4   4         0.0097371224
              4   1         0.0088710609
              5  38         0.0082281397
              5  36         0.0080988894

    Largest TIJAB Amplitudes:
      5   3  32  11        -0.0097213262
      5   2  42  21        -0.0078725200
      5   3  42  22        -0.0076931220
      5   3  32   4        -0.0074953777
      5   3  32   9        -0.0074672711
      5   3  39  17         0.0072494115
      5   2  39  17        -0.0072427171
      5   2  40  18        -0.0072218033
      4   3  12   7         0.0070415443
      5   3  33  11        -0.0067520750

    Largest Tijab Amplitudes:
      5   3  32  11        -0.0097213262
      5   2  42  21        -0.0078725200
      5   3  42  22        -0.0076931220
      5   3  32   4        -0.0074953777
      5   3  32   9        -0.0074672711
      5   3  39  17         0.0072494115
      5   2  39  17        -0.0072427171
      5   2  40  18        -0.0072218033
      4   3  12   7         0.0070415443
      5   3  33  11        -0.0067520750

    Largest TIjAb Amplitudes:
      4   4  32  32        -0.0724851352
      4   4  32  33        -0.0545538218
      4   4  33  32        -0.0545538218
      4   4  33  33        -0.0410150272
      5   5  32  32        -0.0262030123
      4   4   7   7        -0.0260842950
      4   4  32  35        -0.0243826794
      4   4  35  32        -0.0243826794
      5   5  42  42        -0.0223610980
      4   4  33  35        -0.0186496132

    SCF energy       (wfn)                    = -137.756024271925355
    Reference energy (file100)                = -137.756024271924872

    Opposite-spin CCSD correlation energy     =   -0.267834640710886
    Same-spin CCSD correlation energy         =   -0.071630500704388
    Singles CCSD correlation energy           =    0.000000000098364
    CCSD correlation energy                   =   -0.339465141316910
      * CCSD total energy                     = -138.095489413241779


    Psi4 stopped on: Thursday, 18 August 2022 12:52PM
    Psi4 wall time for execution: 0:00:07.82


    -----------------------------------------------------------------------
          Psi4: An Open-Source Ab Initio Electronic Structure Package
                               Psi4 1.6.1 release

                         Git: Rev {HEAD} 5b9f6e3 


    D. G. A. Smith, L. A. Burns, A. C. Simmonett, R. M. Parrish,
    M. C. Schieber, R. Galvelis, P. Kraus, H. Kruse, R. Di Remigio,
    A. Alenaizan, A. M. James, S. Lehtola, J. P. Misiewicz, M. Scheurer,
    R. A. Shaw, J. B. Schriber, Y. Xie, Z. L. Glick, D. A. Sirianni,
    J. S. O'Brien, J. M. Waldrop, A. Kumar, E. G. Hohenstein,
    B. P. Pritchard, B. R. Brooks, H. F. Schaefer III, A. Yu. Sokolov,
    K. Patkowski, A. E. DePrince III, U. Bozkaya, R. A. King,
    F. A. Evangelista, J. M. Turney, T. D. Crawford, C. D. Sherrill,
    J. Chem. Phys. 152(18) 184108 (2020). https://doi.org/10.1063/5.0006002

                            Additional Code Authors
    E. T. Seidl, C. L. Janssen, E. F. Valeev, M. L. Leininger,
    J. F. Gonthier, R. M. Richard, H. R. McAlexander, M. Saitow, X. Wang,
    P. Verma, M. H. Lechner, and A. Jiang

             Previous Authors, Complete List of Code Contributors,
                       and Citations for Specific Modules
    https://github.com/psi4/psi4/blob/master/codemeta.json
    https://github.com/psi4/psi4/graphs/contributors
    http://psicode.org/psi4manual/master/introduction.html#citing-psifour

    -----------------------------------------------------------------------


    Psi4 started on: Thursday, 18 August 2022 12:51PM

    Process ID: 148537
    Host:       node8
    PSIDATADIR: /home/mdavis/anaconda3/envs/p4env/share/psi4
    Memory:     500.0 MiB
    Threads:    1
    
  ==> Input QCSchema <==

--------------------------------------------------------------------------
{'driver': 'energy',
 'extras': {'psiapi': True, 'wfn_qcvars_only': True},
 'id': None,
 'keywords': {'DERTYPE': 'NONE',
              'E_CONVERGENCE': 1e-08,
              'FREEZE_CORE': 'TRUE',
              'PARENT_SYMMETRY': 'Cs(Z)',
              'REFERENCE': 'ROHF',
              'ROOTS_PER_IRREP': [0, 1],
              'SCF__D_CONVERGENCE': 1e-10,
              'SCF__E_CONVERGENCE': 1e-10,
              'function_kwargs': {}},
 'model': {'basis': 'aug-cc-pvdz', 'method': 'ccsd'},
 'molecule': {'atom_labels': ['', '', ''],
              'atomic_numbers': [1, 6, 9],
              'fix_com': True,
              'fix_orientation': True,
              'fragment_charges': [0.0],
              'fragment_multiplicities': [1],
              'fragments': [[0, 1, 2]],
              'geometry': [-1.4377096425522191, 2.7546771266537307, 0.0, 0.18580988818143995, 1.4235927632411103, 0.0,
                           -0.04109602710539146, -1.0453165749111648, 0.0],
              'mass_numbers': [1, 12, 19],
              'masses': [1.00782503223, 12.0, 18.99840316273],
              'molecular_charge': 0.0,
              'molecular_multiplicity': 1,
              'name': 'CFH',
              'provenance': {'creator': 'QCElemental',
                             'routine': 'qcelemental.molparse.from_string',
                             'version': 'v0.25.0'},
              'real': [True, True, True],
              'schema_name': 'qcschema_molecule',
              'schema_version': 2,
              'symbols': ['H', 'C', 'F'],
              'validated': True},
 'protocols': {'stdout': True},
 'provenance': {'creator': 'QCElemental', 'routine': 'qcelemental.models.results', 'version': 'v0.25.0'},
 'schema_name': 'qcschema_input',
 'schema_version': 1}
--------------------------------------------------------------------------

Scratch directory: /scratch/mdavis/PSI4_2022-08-18_12:51:44.483727103/

*** tstart() called on node8
*** at Thu Aug 18 12:52:17 2022

   => Loading Basis Set <=

    Name: AUG-CC-PVDZ
    Role: ORBITAL
    Keyword: BASIS
    atoms 1 entry H          line    40 file /home/mdavis/anaconda3/envs/p4env/share/psi4/basis/aug-cc-pvdz.gbs 
    atoms 2 entry C          line   182 file /home/mdavis/anaconda3/envs/p4env/share/psi4/basis/aug-cc-pvdz.gbs 
    atoms 3 entry F          line   290 file /home/mdavis/anaconda3/envs/p4env/share/psi4/basis/aug-cc-pvdz.gbs 


         ---------------------------------------------------------
                                   SCF
               by Justin Turney, Rob Parrish, Andy Simmonett
                          and Daniel G. A. Smith
                             ROHF Reference
                        1 Threads,    500 MiB Core
         ---------------------------------------------------------

  ==> Geometry <==

    Molecular point group: cs
    Full point group: Cs

    Geometry (in Bohr), charge = 0, multiplicity = 1:

       Center              X                  Y                   Z               Mass       
    ------------   -----------------  -----------------  -----------------  -----------------
         H           -1.437709642552     2.754677126654     0.000000000000     1.007825032230
         C            0.185809888181     1.423592763241     0.000000000000    12.000000000000
         F           -0.041096027105    -1.045316574911     0.000000000000    18.998403162730

  Running in cs symmetry.

  Rotational constants: A =     23.79836  B =      1.14174  C =      1.08947 [cm^-1]
  Rotational constants: A = 713456.78184  B =  34228.46637  C =  32661.51301 [MHz]
  Nuclear repulsion =   26.861172234952420

  Charge       = 0
  Multiplicity = 1
  Electrons    = 16
  Nalpha       = 8
  Nbeta        = 8

  ==> Algorithm <==

  SCF Algorithm Type is PK.
  DIIS enabled.
  MOM disabled.
  Fractional occupation disabled.
  Guess Type is SAD.
  Energy threshold   = 1.00e-10
  Density threshold  = 1.00e-10
  Integral threshold = 1.00e-12

  ==> Primary Basis <==

  Basis Set: AUG-CC-PVDZ
    Blend: AUG-CC-PVDZ
    Number of shells: 23
    Number of basis functions: 55
    Number of Cartesian functions: 59
    Spherical Harmonics?: true
    Max angular momentum: 2

  ==> Integral Setup <==

  Using in-core PK algorithm.
   Calculation information:
      Number of atoms:                   3
      Number of AO shells:              23
      Number of primitives:             57
      Number of atomic orbitals:        59
      Number of basis functions:        55

      Integral cutoff                 1.00e-12
      Number of threads:                 1

  Performing in-core PK
  Using 2373140 doubles for integral storage.
  We computed 38226 shell quartets total.
  Whereas there are 38226 unique shell quartets.

  ==> DiskJK: Disk-Based J/K Matrices <==

    J tasked:                  Yes
    K tasked:                  Yes
    wK tasked:                  No
    Memory [MiB]:              375
    Schwarz Cutoff:          1E-12

    OpenMP threads:              1

  Minimum eigenvalue in the overlap matrix is 1.0471301004E-03.
  Reciprocal condition number of the overlap matrix is 1.9777881516E-04.
    Using symmetric orthogonalization.

  ==> Pre-Iterations <==

  SCF Guess: Superposition of Atomic Densities via on-the-fly atomic UHF (no occupation information).

   -------------------------
    Irrep   Nso     Nmo    
   -------------------------
     A'        39      39 
     A"        16      16 
   -------------------------
    Total      55      55
   -------------------------

  ==> Iterations <==

                        Total Energy        Delta E     RMS |[F,P]|

   @ROHF iter SAD:  -137.04534336953918   -1.37045e+02   0.00000e+00 
   @ROHF iter   1:  -137.73520043839693   -6.89857e-01   3.28427e-03 DIIS
   @ROHF iter   2:  -137.75291781452620   -1.77174e-02   1.24994e-03 DIIS
   @ROHF iter   3:  -137.75519638586258   -2.27857e-03   5.16697e-04 DIIS
   @ROHF iter   4:  -137.75567323109539   -4.76845e-04   1.05658e-04 DIIS
   @ROHF iter   5:  -137.75572971579192   -5.64847e-05   3.55659e-05 DIIS
   @ROHF iter   6:  -137.75573707199808   -7.35621e-06   1.03129e-05 DIIS
   @ROHF iter   7:  -137.75573758717329   -5.15175e-07   1.81166e-06 DIIS
   @ROHF iter   8:  -137.75573760148779   -1.43145e-08   3.86581e-07 DIIS
   @ROHF iter   9:  -137.75573760222235   -7.34559e-10   8.85071e-08 DIIS
   @ROHF iter  10:  -137.75573760225751   -3.51577e-11   1.67061e-08 DIIS
   @ROHF iter  11:  -137.75573760225859   -1.08002e-12   2.69992e-09 DIIS
   @ROHF iter  12:  -137.75573760225890   -3.12639e-13   6.72179e-10 DIIS
   @ROHF iter  13:  -137.75573760225882    8.52651e-14   2.02227e-10 DIIS
   @ROHF iter  14:  -137.75573760225871    1.13687e-13   4.93679e-11 DIIS
  Energy and wave function converged.


  ==> Post-Iterations <==

    Orbital Energies [Eh]
    ---------------------

    Doubly Occupied:                                                      

       1Ap   -26.379116     2Ap   -11.376335     3Ap    -1.688177  
       4Ap    -0.926143     5Ap    -0.767176     1App   -0.719323  
       6Ap    -0.702252     7Ap    -0.378642  

    Singly Occupied:                                                      

    

    Virtual:                                                              

       8Ap     0.036443     2App    0.043305     9Ap     0.086853  
      10Ap     0.113332     3App    0.141862    11Ap     0.172173  
      12Ap     0.247393    13Ap     0.263600     4App    0.284346  
      14Ap     0.306543    15Ap     0.330535     5App    0.375537  
      16Ap     0.435383    17Ap     0.477401     6App    0.516830  
      18Ap     0.518787    19Ap     0.573271    20Ap     0.626411  
       7App    0.629508    21Ap     0.730719     8App    0.847605  
      22Ap     0.873941    23Ap     0.937442    24Ap     1.077777  
       9App    1.404554    25Ap     1.409526    26Ap     1.433924  
      10App    1.438507    11App    1.553782    27Ap     1.581198  
      28Ap     1.670977    12App    1.711682    29Ap     1.767446  
      30Ap     1.820366    13App    2.004578    31Ap     2.006769  
      14App    2.220678    32Ap     2.224687    33Ap     2.277420  
      34Ap     2.437289    35Ap     2.798015    36Ap     3.430260  
      15App    4.859081    37Ap     4.859400    16App    4.943189  
      38Ap     4.981493    39Ap     5.010461  

    Final Occupation by Irrep:
             Ap   App 
    DOCC [     7,    1 ]
    SOCC [     0,    0 ]

  @ROHF Final Energy:  -137.75573760225871

   => Energetics <=

    Nuclear Repulsion Energy =             26.8611722349524200
    One-Electron Energy =                -243.3594914347889073
    Two-Electron Energy =                  78.7425815975777965
    Total Energy =                       -137.7557376022587050

Computation Completed


Properties will be evaluated at   0.000000,   0.000000,   0.000000 [a0]

Properties computed using the SCF density matrix


 Multipole Moments:

 ------------------------------------------------------------------------------------
     Multipole            Electronic (a.u.)      Nuclear  (a.u.)        Total (a.u.)
 ------------------------------------------------------------------------------------

 L = 1.  Multiply by 2.5417464519 to convert [e a0] to [Debye]
 Dipole X            :         -0.0128100           -0.6927146           -0.7055245
 Dipole Y            :         -1.6491046            1.8883845            0.2392799
 Dipole Z            :          0.0000000            0.0000000            0.0000000
 Magnitude           :                                                    0.7449965

 ------------------------------------------------------------------------------------

*** tstop() called on node8 at Thu Aug 18 12:52:18 2022
Module time:
	user time   =       0.92 seconds =       0.02 minutes
	system time =       0.02 seconds =       0.00 minutes
	total time  =          1 seconds =       0.02 minutes
Total time:
	user time   =       8.35 seconds =       0.14 minutes
	system time =       2.62 seconds =       0.04 minutes
	total time  =         28 seconds =       0.47 minutes
 MINTS: Wrapper to libmints.
   by Justin Turney

   Calculation information:
      Number of threads:                 1
      Number of atoms:                   3
      Number of AO shells:              23
      Number of SO shells:              23
      Number of primitives:             57
      Number of atomic orbitals:        59
      Number of basis functions:        55

      Number of irreps:                  2
      Integral cutoff                 1.00e-12
      Number of functions per irrep: [  39   16 ]

 OEINTS: Overlap, kinetic, potential, dipole, and quadrupole integrals
         stored in file 35.

      Computing two-electron integrals...done
      Computed 584494 non-zero two-electron integrals.
        Stored in file 33.


*** tstart() called on node8
*** at Thu Aug 18 12:52:18 2022


	Wfn Parameters:
	--------------------
	Wavefunction         = CCSD
	Number of irreps     = 2
	Number of MOs        = 55
	Number of active MOs = 53
	AO-Basis             = NONE
	Semicanonical        = false
	Reference            = ROHF
	Print Level          = 1

	IRREP	# MOs	# FZDC	# DOCC	# SOCC	# VIRT	# FZVR
	-----	-----	------	------	------	------	------
	 Ap	   39	    2	    5	    0	    32	    0
	 App	   16	    0	    1	    0	    15	    0
	Transforming integrals...
	IWL integrals will be deleted.
	(OO|OO)...
	Presorting SO-basis two-electron integrals.
	Sorting File: SO Ints (nn|nn) nbuckets = 1
	Constructing frozen core operators
	Starting first half-transformation.
	Sorting half-transformed integrals.
	First half integral transformation complete.
	Starting second half-transformation.
	Two-electron integral transformation complete.
	(OO|OV)...
	Starting second half-transformation.
	Two-electron integral transformation complete.
	(OO|VV)...
	Starting second half-transformation.
	Two-electron integral transformation complete.
	(OV|OO)...
	Starting first half-transformation.
	Sorting half-transformed integrals.
	First half integral transformation complete.
	Starting second half-transformation.
	Two-electron integral transformation complete.
	(OV|OV)...
	Starting second half-transformation.
	Two-electron integral transformation complete.
	(OV|VV)...
	Starting second half-transformation.
	Two-electron integral transformation complete.
	(VV|OO)...
	Starting first half-transformation.
	Sorting half-transformed integrals.
	First half integral transformation complete.
	Starting second half-transformation.
	Two-electron integral transformation complete.
	(VV|OV)...
	Starting second half-transformation.
	Two-electron integral transformation complete.
	(VV|VV)...
	Starting second half-transformation.
	Two-electron integral transformation complete.
	Frozen core energy     =   -119.77085568471138

	Size of irrep 0 of <ab|cd> integrals:      1.560 (MW) /     12.480 (MB)
	Size of irrep 1 of <ab|cd> integrals:      0.922 (MW) /      7.373 (MB)
	Total:                                     2.482 (MW) /     19.853 (MB)

	Size of irrep 0 of <ia|bc> integrals:      0.219 (MW) /      1.749 (MB)
	Size of irrep 1 of <ia|bc> integrals:      0.103 (MW) /      0.822 (MB)
	Total:                                     0.321 (MW) /      2.570 (MB)

	Size of irrep 0 of tIjAb amplitudes:       0.032 (MW) /      0.260 (MB)
	Size of irrep 1 of tIjAb amplitudes:       0.010 (MW) /      0.077 (MB)
	Total:                                     0.042 (MW) /      0.337 (MB)

	Nuclear Rep. energy          =     26.86117223495242
	SCF energy                   =   -137.75573760225871
	One-electron energy          =    -79.32868173588510
	Two-electron (AA) energy     =      7.09232424385104
	Two-electron (BB) energy     =      7.09232424385105
	Two-electron (AB) energy     =     20.29797909568330
	Two-electron energy          =    -44.84605415249970
	Reference energy             =   -137.75573760225865

*** tstop() called on node8 at Thu Aug 18 12:52:19 2022
Module time:
	user time   =       0.26 seconds =       0.00 minutes
	system time =       0.13 seconds =       0.00 minutes
	total time  =          1 seconds =       0.02 minutes
Total time:
	user time   =       8.92 seconds =       0.15 minutes
	system time =       2.76 seconds =       0.05 minutes
	total time  =         29 seconds =       0.48 minutes
            **************************
            *                        *
            *        CCENERGY        *
            *                        *
            **************************

    Nuclear Rep. energy (wfn)     =   26.861172234952420
    SCF energy          (wfn)     = -137.755737602258705
    Reference energy    (file100) = -137.755737602258648

    Input parameters:
    -----------------
    Wave function   =     CCSD
    Reference wfn   =     ROHF
    Brueckner       =     No
    Memory (Mbytes) =     524.3
    Maxiter         =     50
    R_Convergence   =     1.0e-07
    E_Convergence   =     1.0e-08
    Restart         =     Yes
    DIIS            =     Yes
    AO Basis        =     NONE
    ABCD            =     NEW
    Cache Level     =     2
    Cache Type      =     LOW
    Print Level     =     1
    Num. of threads =     1
    # Amps to Print =     10
    Print MP2 Amps? =     No
    Analyze T2 Amps =     No
    Print Pair Ener =     No
    Local CC        =     No
    SCS-MP2         =     False
    SCSN-MP2        =     False
    SCS-CCSD        =     False

                Solving CC Amplitude Equations
                ------------------------------
  Iter             Energy              RMS        T1Diag      D1Diag    New D1Diag    D2Diag
  ----     ---------------------    ---------   ----------  ----------  ----------   --------
     0        -0.318301839263567    0.000e+00    0.000000    0.000000    0.000000    0.000000
     1        -0.324541396577734    9.059e-02    0.014721    0.041476    0.041476    0.000000
     2        -0.335003297679572    3.286e-02    0.014339    0.040340    0.040340    0.000000
     3        -0.339240373929173    2.138e-02    0.018497    0.053211    0.053211    0.000000
     4        -0.339207537640919    7.775e-03    0.019725    0.057011    0.057011    0.000000
     5        -0.339236782500210    3.733e-03    0.020107    0.058231    0.058231    0.000000
     6        -0.339334882751828    1.653e-03    0.020090    0.058051    0.058051    0.000000
     7        -0.339339376440623    7.434e-04    0.020004    0.057670    0.057670    0.000000
     8        -0.339344062343544    3.152e-04    0.019956    0.057481    0.057481    0.000000
     9        -0.339350211723784    1.227e-04    0.019936    0.057401    0.057401    0.000000
    10        -0.339347821633907    4.559e-05    0.019929    0.057380    0.057380    0.000000
    11        -0.339348565584833    1.842e-05    0.019925    0.057371    0.057371    0.000000
    12        -0.339348784995599    6.449e-06    0.019925    0.057371    0.057371    0.000000
    13        -0.339348949516193    2.877e-06    0.019925    0.057371    0.057371    0.000000
    14        -0.339349030955483    1.184e-06    0.019925    0.057372    0.057372    0.000000
    15        -0.339349056002964    4.810e-07    0.019925    0.057372    0.057372    0.000000
    16        -0.339349059521938    2.432e-07    0.019925    0.057372    0.057372    0.000000
    17        -0.339349062510710    1.193e-07    0.019925    0.057372    0.057372    0.000000
    18        -0.339349063951932    6.669e-08    0.019925    0.057372    0.057372    0.000000

    Iterations converged.


    Largest TIA Amplitudes:
              5  32         0.0453808077
              5  33         0.0304600069
              4   5         0.0144397712
              4   6         0.0112373430
              5  34         0.0105848587
              2   5        -0.0099259344
              4   4         0.0096651700
              4   1         0.0088822614
              5  38         0.0082337374
              5  36         0.0081031028

    Largest Tia Amplitudes:
              5  32         0.0453808077
              5  33         0.0304600069
              4   5         0.0144397712
              4   6         0.0112373430
              5  34         0.0105848587
              2   5        -0.0099259344
              4   4         0.0096651700
              4   1         0.0088822614
              5  38         0.0082337374
              5  36         0.0081031028

    Largest TIJAB Amplitudes:
      5   3  32  11        -0.0097618582
      5   2  42  21        -0.0078610735
      5   3  42  22        -0.0077190388
      5   3  32   4        -0.0074693477
      5   3  32   9        -0.0074200510
      5   3  39  17         0.0073194445
      5   2  40  18        -0.0072310388
      5   2  39  17        -0.0071252483
      4   3  12   7         0.0069566228
      5   3  33  11        -0.0067739406

    Largest Tijab Amplitudes:
      5   3  32  11        -0.0097618582
      5   2  42  21        -0.0078610735
      5   3  42  22        -0.0077190388
      5   3  32   4        -0.0074693477
      5   3  32   9        -0.0074200510
      5   3  39  17         0.0073194445
      5   2  40  18        -0.0072310388
      5   2  39  17        -0.0071252483
      4   3  12   7         0.0069566228
      5   3  33  11        -0.0067739406

    Largest TIjAb Amplitudes:
      4   4  32  32        -0.0727704817
      4   4  32  33        -0.0547659871
      4   4  33  32        -0.0547659871
      4   4  33  33        -0.0411691138
      4   4   7   7        -0.0262162154
      5   5  32  32        -0.0261912649
      4   4  32  35        -0.0245124958
      4   4  35  32        -0.0245124958
      5   5  42  42        -0.0223304605
      4   4  33  35        -0.0187354714

    SCF energy       (wfn)                    = -137.755737602258705
    Reference energy (file100)                = -137.755737602258648

    Opposite-spin CCSD correlation energy     =   -0.267719820315976
    Same-spin CCSD correlation energy         =   -0.071629243741050
    Singles CCSD correlation energy           =    0.000000000105094
    CCSD correlation energy                   =   -0.339349063951932
      * CCSD total energy                     = -138.095086666210591


    Psi4 stopped on: Thursday, 18 August 2022 12:52PM
    Psi4 wall time for execution: 0:00:13.07


    -----------------------------------------------------------------------
          Psi4: An Open-Source Ab Initio Electronic Structure Package
                               Psi4 1.6.1 release

                         Git: Rev {HEAD} 5b9f6e3 


    D. G. A. Smith, L. A. Burns, A. C. Simmonett, R. M. Parrish,
    M. C. Schieber, R. Galvelis, P. Kraus, H. Kruse, R. Di Remigio,
    A. Alenaizan, A. M. James, S. Lehtola, J. P. Misiewicz, M. Scheurer,
    R. A. Shaw, J. B. Schriber, Y. Xie, Z. L. Glick, D. A. Sirianni,
    J. S. O'Brien, J. M. Waldrop, A. Kumar, E. G. Hohenstein,
    B. P. Pritchard, B. R. Brooks, H. F. Schaefer III, A. Yu. Sokolov,
    K. Patkowski, A. E. DePrince III, U. Bozkaya, R. A. King,
    F. A. Evangelista, J. M. Turney, T. D. Crawford, C. D. Sherrill,
    J. Chem. Phys. 152(18) 184108 (2020). https://doi.org/10.1063/5.0006002

                            Additional Code Authors
    E. T. Seidl, C. L. Janssen, E. F. Valeev, M. L. Leininger,
    J. F. Gonthier, R. M. Richard, H. R. McAlexander, M. Saitow, X. Wang,
    P. Verma, M. H. Lechner, and A. Jiang

             Previous Authors, Complete List of Code Contributors,
                       and Citations for Specific Modules
    https://github.com/psi4/psi4/blob/master/codemeta.json
    https://github.com/psi4/psi4/graphs/contributors
    http://psicode.org/psi4manual/master/introduction.html#citing-psifour

    -----------------------------------------------------------------------


    Psi4 started on: Thursday, 18 August 2022 12:51PM

    Process ID: 148537
    Host:       node8
    PSIDATADIR: /home/mdavis/anaconda3/envs/p4env/share/psi4
    Memory:     500.0 MiB
    Threads:    1
    
  ==> Input QCSchema <==

--------------------------------------------------------------------------
{'driver': 'energy',
 'extras': {'psiapi': True, 'wfn_qcvars_only': True},
 'id': None,
 'keywords': {'DERTYPE': 'NONE',
              'E_CONVERGENCE': 1e-08,
              'FREEZE_CORE': 'TRUE',
              'PARENT_SYMMETRY': 'Cs(Z)',
              'REFERENCE': 'ROHF',
              'ROOTS_PER_IRREP': [0, 1],
              'SCF__D_CONVERGENCE': 1e-10,
              'SCF__E_CONVERGENCE': 1e-10,
              'function_kwargs': {}},
 'model': {'basis': 'aug-cc-pvdz', 'method': 'ccsd'},
 'molecule': {'atom_labels': ['', '', ''],
              'atomic_numbers': [1, 6, 9],
              'fix_com': True,
              'fix_orientation': True,
              'fragment_charges': [0.0],
              'fragment_multiplicities': [1],
              'fragments': [[0, 1, 2]],
              'geometry': [-1.4422474354707318, 2.7502849663921167, 0.0, 0.1866134627279357, 1.4236750865008534, 0.0,
                           -0.04136287023005685, -1.0451355781236533, 0.0],
              'mass_numbers': [1, 12, 19],
              'masses': [1.00782503223, 12.0, 18.99840316273],
              'molecular_charge': 0.0,
              'molecular_multiplicity': 1,
              'name': 'CFH',
              'provenance': {'creator': 'QCElemental',
                             'routine': 'qcelemental.molparse.from_string',
                             'version': 'v0.25.0'},
              'real': [True, True, True],
              'schema_name': 'qcschema_molecule',
              'schema_version': 2,
              'symbols': ['H', 'C', 'F'],
              'validated': True},
 'protocols': {'stdout': True},
 'provenance': {'creator': 'QCElemental', 'routine': 'qcelemental.models.results', 'version': 'v0.25.0'},
 'schema_name': 'qcschema_input',
 'schema_version': 1}
--------------------------------------------------------------------------

Scratch directory: /scratch/mdavis/PSI4_2022-08-18_12:51:44.483727103/

*** tstart() called on node8
*** at Thu Aug 18 12:52:30 2022

   => Loading Basis Set <=

    Name: AUG-CC-PVDZ
    Role: ORBITAL
    Keyword: BASIS
    atoms 1 entry H          line    40 file /home/mdavis/anaconda3/envs/p4env/share/psi4/basis/aug-cc-pvdz.gbs 
    atoms 2 entry C          line   182 file /home/mdavis/anaconda3/envs/p4env/share/psi4/basis/aug-cc-pvdz.gbs 
    atoms 3 entry F          line   290 file /home/mdavis/anaconda3/envs/p4env/share/psi4/basis/aug-cc-pvdz.gbs 


         ---------------------------------------------------------
                                   SCF
               by Justin Turney, Rob Parrish, Andy Simmonett
                          and Daniel G. A. Smith
                             ROHF Reference
                        1 Threads,    500 MiB Core
         ---------------------------------------------------------

  ==> Geometry <==

    Molecular point group: cs
    Full point group: Cs

    Geometry (in Bohr), charge = 0, multiplicity = 1:

       Center              X                  Y                   Z               Mass       
    ------------   -----------------  -----------------  -----------------  -----------------
         H           -1.442247435471     2.750284966392     0.000000000000     1.007825032230
         C            0.186613462728     1.423675086501     0.000000000000    12.000000000000
         F           -0.041362870230    -1.045135578124     0.000000000000    18.998403162730

  Running in cs symmetry.

  Rotational constants: A =     23.63784  B =      1.14236  C =      1.08970 [cm^-1]
  Rotational constants: A = 708644.62769  B =  34247.13421  C =  32668.34944 [MHz]
  Nuclear repulsion =   26.860944601017334

  Charge       = 0
  Multiplicity = 1
  Electrons    = 16
  Nalpha       = 8
  Nbeta        = 8

  ==> Algorithm <==

  SCF Algorithm Type is PK.
  DIIS enabled.
  MOM disabled.
  Fractional occupation disabled.
  Guess Type is SAD.
  Energy threshold   = 1.00e-10
  Density threshold  = 1.00e-10
  Integral threshold = 1.00e-12

  ==> Primary Basis <==

  Basis Set: AUG-CC-PVDZ
    Blend: AUG-CC-PVDZ
    Number of shells: 23
    Number of basis functions: 55
    Number of Cartesian functions: 59
    Spherical Harmonics?: true
    Max angular momentum: 2

  ==> Integral Setup <==

  Using in-core PK algorithm.
   Calculation information:
      Number of atoms:                   3
      Number of AO shells:              23
      Number of primitives:             57
      Number of atomic orbitals:        59
      Number of basis functions:        55

      Integral cutoff                 1.00e-12
      Number of threads:                 1

  Performing in-core PK
  Using 2373140 doubles for integral storage.
  We computed 38226 shell quartets total.
  Whereas there are 38226 unique shell quartets.

  ==> DiskJK: Disk-Based J/K Matrices <==

    J tasked:                  Yes
    K tasked:                  Yes
    wK tasked:                  No
    Memory [MiB]:              375
    Schwarz Cutoff:          1E-12

    OpenMP threads:              1

  Minimum eigenvalue in the overlap matrix is 1.0486026374E-03.
  Reciprocal condition number of the overlap matrix is 1.9803505246E-04.
    Using symmetric orthogonalization.

  ==> Pre-Iterations <==

  SCF Guess: Superposition of Atomic Densities via on-the-fly atomic UHF (no occupation information).

   -------------------------
    Irrep   Nso     Nmo    
   -------------------------
     A'        39      39 
     A"        16      16 
   -------------------------
    Total      55      55
   -------------------------

  ==> Iterations <==

                        Total Energy        Delta E     RMS |[F,P]|

   @ROHF iter SAD:  -137.04527445343939   -1.37045e+02   0.00000e+00 
   @ROHF iter   1:  -137.73556833707150   -6.90294e-01   3.28455e-03 DIIS
   @ROHF iter   2:  -137.75327877916141   -1.77104e-02   1.25126e-03 DIIS
   @ROHF iter   3:  -137.75555938817578   -2.28061e-03   5.16492e-04 DIIS
   @ROHF iter   4:  -137.75603545781240   -4.76070e-04   1.05453e-04 DIIS
   @ROHF iter   5:  -137.75609163353550   -5.61757e-05   3.54857e-05 DIIS
   @ROHF iter   6:  -137.75609894306132   -7.30953e-06   1.03018e-05 DIIS
   @ROHF iter   7:  -137.75609945628963   -5.13228e-07   1.80745e-06 DIIS
   @ROHF iter   8:  -137.75609947052766   -1.42380e-08   3.84092e-07 DIIS
   @ROHF iter   9:  -137.75609947125335   -7.25692e-10   8.74829e-08 DIIS
   @ROHF iter  10:  -137.75609947128771   -3.43618e-11   1.64524e-08 DIIS
   @ROHF iter  11:  -137.75609947128908   -1.36424e-12   2.54842e-09 DIIS
   @ROHF iter  12:  -137.75609947128905    2.84217e-14   5.67051e-10 DIIS
   @ROHF iter  13:  -137.75609947128891    1.42109e-13   1.68012e-10 DIIS
   @ROHF iter  14:  -137.75609947128902   -1.13687e-13   4.66007e-11 DIIS
  Energy and wave function converged.


  ==> Post-Iterations <==

    Orbital Energies [Eh]
    ---------------------

    Doubly Occupied:                                                      

       1Ap   -26.379066     2Ap   -11.376471     3Ap    -1.688187  
       4Ap    -0.926155     5Ap    -0.767107     1App   -0.719303  
       6Ap    -0.701916     7Ap    -0.378995  

    Singly Occupied:                                                      

    

    Virtual:                                                              

       8Ap     0.036460     2App    0.043311     9Ap     0.086885  
      10Ap     0.113323     3App    0.141858    11Ap     0.172184  
      12Ap     0.247540    13Ap     0.263546     4App    0.284382  
      14Ap     0.306540    15Ap     0.330259     5App    0.375366  
      16Ap     0.435670    17Ap     0.477533     6App    0.517207  
      18Ap     0.518690    19Ap     0.573568    20Ap     0.626406  
       7App    0.629124    21Ap     0.730206     8App    0.847636  
      22Ap     0.873965    23Ap     0.936700    24Ap     1.077571  
       9App    1.404638    25Ap     1.409489    26Ap     1.434039  
      10App    1.438439    11App    1.553434    27Ap     1.580806  
      28Ap     1.672062    12App    1.711536    29Ap     1.767460  
      30Ap     1.820800    13App    2.005496    31Ap     2.006696  
      14App    2.219443    32Ap     2.223223    33Ap     2.277340  
      34Ap     2.436696    35Ap     2.795377    36Ap     3.429896  
      15App    4.859020    37Ap     4.859407    16App    4.943202  
      38Ap     4.981493    39Ap     5.010277  

    Final Occupation by Irrep:
             Ap   App 
    DOCC [     7,    1 ]
    SOCC [     0,    0 ]

  @ROHF Final Energy:  -137.75609947128902

   => Energetics <=

    Nuclear Repulsion Energy =             26.8609446010173336
    One-Electron Energy =                -243.3596915749287461
    Two-Electron Energy =                  78.7426475026223898
    Total Energy =                       -137.7560994712890192

Computation Completed


Properties will be evaluated at   0.000000,   0.000000,   0.000000 [a0]

Properties computed using the SCF density matrix


 Multipole Moments:

 ------------------------------------------------------------------------------------
     Multipole            Electronic (a.u.)      Nuclear  (a.u.)        Total (a.u.)
 ------------------------------------------------------------------------------------

 L = 1.  Multiply by 2.5417464519 to convert [e a0] to [Debye]
 Dipole X            :         -0.0097799           -0.6948325           -0.7046124
 Dipole Y            :         -1.6478493            1.8861153            0.2382660
 Dipole Z            :          0.0000000            0.0000000            0.0000000
 Magnitude           :                                                    0.7438073

 ------------------------------------------------------------------------------------

*** tstop() called on node8 at Thu Aug 18 12:52:31 2022
Module time:
	user time   =       1.10 seconds =       0.02 minutes
	system time =       0.01 seconds =       0.00 minutes
	total time  =          1 seconds =       0.02 minutes
Total time:
	user time   =      12.44 seconds =       0.21 minutes
	system time =       3.94 seconds =       0.07 minutes
	total time  =         41 seconds =       0.68 minutes
 MINTS: Wrapper to libmints.
   by Justin Turney

   Calculation information:
      Number of threads:                 1
      Number of atoms:                   3
      Number of AO shells:              23
      Number of SO shells:              23
      Number of primitives:             57
      Number of atomic orbitals:        59
      Number of basis functions:        55

      Number of irreps:                  2
      Integral cutoff                 1.00e-12
      Number of functions per irrep: [  39   16 ]

 OEINTS: Overlap, kinetic, potential, dipole, and quadrupole integrals
         stored in file 35.

      Computing two-electron integrals...done
      Computed 584494 non-zero two-electron integrals.
        Stored in file 33.


*** tstart() called on node8
*** at Thu Aug 18 12:52:31 2022


	Wfn Parameters:
	--------------------
	Wavefunction         = CCSD
	Number of irreps     = 2
	Number of MOs        = 55
	Number of active MOs = 53
	AO-Basis             = NONE
	Semicanonical        = false
[...]
      Number of primitives:             57
      Number of atomic orbitals:        59
      Number of basis functions:        55

      Number of irreps:                  2
      Integral cutoff                 1.00e-12
      Number of functions per irrep: [  39   16 ]

 OEINTS: Overlap, kinetic, potential, dipole, and quadrupole integrals
         stored in file 35.

      Computing two-electron integrals...done
      Computed 584494 non-zero two-electron integrals.
        Stored in file 33.


*** tstart() called on node8
*** at Thu Aug 18 13:24:22 2022


	Wfn Parameters:
	--------------------
	Wavefunction         = CCSD
	Number of irreps     = 2
	Number of MOs        = 55
	Number of active MOs = 53
	AO-Basis             = NONE
	Semicanonical        = false
	Reference            = ROHF
	Print Level          = 1

	IRREP	# MOs	# FZDC	# DOCC	# SOCC	# VIRT	# FZVR
	-----	-----	------	------	------	------	------
	 Ap	   39	    2	    5	    0	    32	    0
	 App	   16	    0	    1	    0	    15	    0
	Transforming integrals...
	IWL integrals will be deleted.
	(OO|OO)...
	Presorting SO-basis two-electron integrals.
	Sorting File: SO Ints (nn|nn) nbuckets = 1
	Constructing frozen core operators
	Starting first half-transformation.
	Sorting half-transformed integrals.
	First half integral transformation complete.
	Starting second half-transformation.
	Two-electron integral transformation complete.
	(OO|OV)...
	Starting second half-transformation.
	Two-electron integral transformation complete.
	(OO|VV)...
	Starting second half-transformation.
	Two-electron integral transformation complete.
	(OV|OO)...
	Starting first half-transformation.
	Sorting half-transformed integrals.
	First half integral transformation complete.
	Starting second half-transformation.
	Two-electron integral transformation complete.
	(OV|OV)...
	Starting second half-transformation.
	Two-electron integral transformation complete.
	(OV|VV)...
	Starting second half-transformation.
	Two-electron integral transformation complete.
	(VV|OO)...
	Starting first half-transformation.
	Sorting half-transformed integrals.
	First half integral transformation complete.
	Starting second half-transformation.
	Two-electron integral transformation complete.
	(VV|OV)...
	Starting second half-transformation.
	Two-electron integral transformation complete.
	(VV|VV)...
	Starting second half-transformation.
	Two-electron integral transformation complete.
	Frozen core energy     =   -119.76878402588385

	Size of irrep 0 of <ab|cd> integrals:      1.560 (MW) /     12.480 (MB)
	Size of irrep 1 of <ab|cd> integrals:      0.922 (MW) /      7.373 (MB)
	Total:                                     2.482 (MW) /     19.853 (MB)

	Size of irrep 0 of <ia|bc> integrals:      0.219 (MW) /      1.749 (MB)
	Size of irrep 1 of <ia|bc> integrals:      0.103 (MW) /      0.822 (MB)
	Total:                                     0.321 (MW) /      2.570 (MB)

	Size of irrep 0 of tIjAb amplitudes:       0.032 (MW) /      0.260 (MB)
	Size of irrep 1 of tIjAb amplitudes:       0.010 (MW) /      0.077 (MB)
	Total:                                     0.042 (MW) /      0.337 (MB)

	Nuclear Rep. energy          =     26.89974931587671
	SCF energy                   =   -137.75869139215541
	One-electron energy          =    -79.41248544002097
	Two-electron (AA) energy     =      7.10007619493778
	Two-electron (BB) energy     =      7.10007619493778
	Two-electron (AB) energy     =     20.32267636799691
	Two-electron energy          =    -44.88965668214851
	Reference energy             =   -137.75869139215564

*** tstop() called on node8 at Thu Aug 18 13:24:23 2022
Module time:
	user time   =       0.31 seconds =       0.01 minutes
	system time =       0.14 seconds =       0.00 minutes
	total time  =          1 seconds =       0.02 minutes
Total time:
	user time   =     387.65 seconds =       6.46 minutes
	system time =     145.78 seconds =       2.43 minutes
	total time  =       1953 seconds =      32.55 minutes
            **************************
            *                        *
            *        CCENERGY        *
            *                        *
            **************************

    Nuclear Rep. energy (wfn)     =   26.899749315876711
    SCF energy          (wfn)     = -137.758691392155413
    Reference energy    (file100) = -137.758691392155640

    Input parameters:
    -----------------
    Wave function   =     CCSD
    Reference wfn   =     ROHF
    Brueckner       =     No
    Memory (Mbytes) =     524.3
    Maxiter         =     50
    R_Convergence   =     1.0e-07
    E_Convergence   =     1.0e-08
    Restart         =     Yes
    DIIS            =     Yes
    AO Basis        =     NONE
    ABCD            =     NEW
    Cache Level     =     2
    Cache Type      =     LOW
    Print Level     =     1
    Num. of threads =     1
    # Amps to Print =     10
    Print MP2 Amps? =     No
    Analyze T2 Amps =     No
    Print Pair Ener =     No
    Local CC        =     No
    SCS-MP2         =     False
    SCSN-MP2        =     False
    SCS-CCSD        =     False

                Solving CC Amplitude Equations
                ------------------------------
  Iter             Energy              RMS        T1Diag      D1Diag    New D1Diag    D2Diag
  ----     ---------------------    ---------   ----------  ----------  ----------   --------
     0        -0.317843055382177    0.000e+00    0.000000    0.000000    0.000000    0.000000
     1        -0.324003247887066    9.045e-02    0.014733    0.041690    0.041690    0.000000
     2        -0.334417204757170    3.269e-02    0.014340    0.040552    0.040552    0.000000
     3        -0.338623566291493    2.128e-02    0.018493    0.053544    0.053544    0.000000
     4        -0.338580198127098    7.649e-03    0.019714    0.057401    0.057401    0.000000
     5        -0.338603909605275    3.629e-03    0.020086    0.058665    0.058665    0.000000
     6        -0.338698792916275    1.592e-03    0.020065    0.058502    0.058502    0.000000
     7        -0.338702617388770    7.116e-04    0.019980    0.058138    0.058138    0.000000
     8        -0.338707483067769    3.003e-04    0.019934    0.057954    0.057954    0.000000
     9        -0.338713192209532    1.162e-04    0.019914    0.057876    0.057876    0.000000
    10        -0.338710917914068    4.267e-05    0.019908    0.057855    0.057855    0.000000
    11        -0.338711678943901    1.697e-05    0.019905    0.057846    0.057846    0.000000
    12        -0.338711892274231    5.803e-06    0.019904    0.057846    0.057846    0.000000
    13        -0.338712051461772    2.566e-06    0.019904    0.057845    0.057845    0.000000
    14        -0.338712126832169    1.055e-06    0.019904    0.057846    0.057846    0.000000
    15        -0.338712149040064    4.279e-07    0.019904    0.057846    0.057846    0.000000
    16        -0.338712152186059    2.132e-07    0.019904    0.057846    0.057846    0.000000
    17        -0.338712154701840    1.036e-07    0.019904    0.057846    0.057846    0.000000
    18        -0.338712155929899    5.770e-08    0.019904    0.057846    0.057846    0.000000

    Iterations converged.


    Largest TIA Amplitudes:
              5  32         0.0459085246
              5  33         0.0305563136
              4   5         0.0142562752
              4   6         0.0117977447
              5  34         0.0105375424
              2   5        -0.0096139958
              5  36         0.0083275320
              4   1        -0.0081870712
              5  38         0.0081544969
              3   5         0.0072577200

    Largest Tia Amplitudes:
              5  32         0.0459085246
              5  33         0.0305563136
              4   5         0.0142562752
              4   6         0.0117977447
              5  34         0.0105375424
              2   5        -0.0096139958
              5  36         0.0083275320
              4   1        -0.0081870712
              5  38         0.0081544969
              3   5         0.0072577200

    Largest TIJAB Amplitudes:
      5   3  32  11        -0.0091528826
      5   3  42  22        -0.0079887002
      5   3  39  17         0.0076793846
      5   2  42  21        -0.0076065828
      5   3  32   9        -0.0074717047
      5   3  32  12        -0.0072428464
      5   2  40  18        -0.0069705486
      5   3  32   5        -0.0067611122
      5   2  39  17        -0.0067425261
      4   3  14   7         0.0065547545

    Largest Tijab Amplitudes:
      5   3  32  11        -0.0091528826
      5   3  42  22        -0.0079887002
      5   3  39  17         0.0076793846
      5   2  42  21        -0.0076065828
      5   3  32   9        -0.0074717047
      5   3  32  12        -0.0072428464
      5   2  40  18        -0.0069705486
      5   3  32   5        -0.0067611122
      5   2  39  17        -0.0067425261
      4   3  14   7         0.0065547545

    Largest TIjAb Amplitudes:
      4   4  32  32        -0.0727399069
      4   4  32  33        -0.0545250042
      4   4  33  32        -0.0545250042
      4   4  33  33        -0.0408556908
      5   5  32  32        -0.0264172553
      4   4   7   7        -0.0263292278
      4   4  32  35        -0.0248496509
      4   4  35  32        -0.0248496509
      5   5  42  42        -0.0226811508
      4   4  33  35        -0.0188627266

    SCF energy       (wfn)                    = -137.758691392155413
    Reference energy (file100)                = -137.758691392155640

    Opposite-spin CCSD correlation energy     =   -0.267143714983047
    Same-spin CCSD correlation energy         =   -0.071568440859722
    Singles CCSD correlation energy           =   -0.000000000087129
    CCSD correlation energy                   =   -0.338712155929899
      * CCSD total energy                     = -138.097403548085538


			**************************
			*                        *
			*         CCHBAR         *
			*                        *
			**************************


	**********************************************************
	*  CCEOM: An Equation of Motion Coupled Cluster Program  *
	**********************************************************

	Nuclear Rep. energy (wfn)     =   26.899749315876711
	SCF energy          (wfn)     = -137.758691392155413
	Reference energy    (file100) = -137.758691392155640
	CCSD energy         (file100) =   -0.338712155929899

	Input parameters:
	-----------------
	Reference wfn   =    ROHF
	Reference EOM wfn=    ROHF
	Memory (Mbytes) =  524.3
	ABCD            =     NEW
	Cache Level     =    2
	Cache Type      =     LRU
	Num. of threads =     1
	Local CC        =     No


	CCEOM parameters:
	-----------------
	States sought per irrep     = Ap 0, App 1,
	Max. number of iterations   =    80
	Vectors stored per root     =    12
	Print HbarSS iterations?    =     0
	Excitation range for HBarSS =     2
	Eigenvalue tolerance        = 1.0e-08
	Eigenvalue toleranceSS      = 1.0e-06
	Residual vector tolerance   = 1.0e-06
	Residual vector toleranceSS = 1.0e-06
	Complex tolerance           = 1.0e-12
	Root for properties         =     1
	Sym of state for properties =    App
	Guess vectors taken from    = SINGLES
	Restart EOM CC3             = NO
	Collapse with last vector   = YES



Fae   dot Fae   total  404.9197649881
Fmi   dot Fmi   total   12.2925651922
Fme   dot Fme   total    0.0008555215
WMBIJ dot WMBIJ total    0.7838187333
Wmbij dot Wmbij total    0.7838187333
WMbIj dot WMbIj total    1.0931588820
WmBiJ dot WmBiJ total    1.0931588820
Symmetry of ground state: Ap
Symmetry of excited state: App
Symmetry of right eigenvector: App
Obtaining initial guess from singles-singles block of Hbar...Done.

Iter=1    L=1     Root    EOM Energy     Delta E   Res. Norm    Conv?
                     1   0.0621708808   6.22e-02    3.70e-01      N
Iter=2    L=2     Root    EOM Energy     Delta E   Res. Norm    Conv?
                     1   0.0069816803  -5.52e-02    7.99e-02      N
Iter=3    L=3     Root    EOM Energy     Delta E   Res. Norm    Conv?
                     1   0.0037066721  -3.28e-03    3.86e-02      N
Iter=4    L=4     Root    EOM Energy     Delta E   Res. Norm    Conv?
                     1   0.0028931561  -8.14e-04    1.50e-02      N
Iter=5    L=5     Root    EOM Energy     Delta E   Res. Norm    Conv?
                     1   0.0027126527  -1.81e-04    6.09e-03      N
Iter=6    L=6     Root    EOM Energy     Delta E   Res. Norm    Conv?
                     1   0.0027037555  -8.90e-06    2.11e-03      N
Iter=7    L=7     Root    EOM Energy     Delta E   Res. Norm    Conv?
                     1   0.0026960795  -7.68e-06    7.78e-04      N
Iter=8    L=8     Root    EOM Energy     Delta E   Res. Norm    Conv?
                     1   0.0026927876  -3.29e-06    2.91e-04      N
Iter=9    L=9     Root    EOM Energy     Delta E   Res. Norm    Conv?
                     1   0.0026923574  -4.30e-07    1.13e-04      N
Iter=10   L=10    Root    EOM Energy     Delta E   Res. Norm    Conv?
                     1   0.0026922253  -1.32e-07    3.99e-05      N
Iter=11   L=11    Root    EOM Energy     Delta E   Res. Norm    Conv?
                     1   0.0026921264  -9.89e-08    1.52e-05      N
Iter=12   L=12    Root    EOM Energy     Delta E   Res. Norm    Conv?
                     1   0.0026921094  -1.70e-08    5.09e-06      N
Iter=13   L=2     Root    EOM Energy     Delta E   Res. Norm    Conv?
                     1   0.0026921094   8.80e-17    5.09e-06      N
Iter=14   L=3     Root    EOM Energy     Delta E   Res. Norm    Conv?
                     1   0.0026921081  -1.31e-09    1.72e-06      N
Iter=15   L=4     Root    EOM Energy     Delta E   Res. Norm    Conv?
                     1   0.0026921088   7.03e-10    6.69e-07      Y
Collapsing to only 1 vector(s).

Procedure converged for 1 root(s).
Energy written to CC_INFO:Etot -138.0947114393
States per irrep written to CC_INFO.
<R|R> =   1.0000000000000002
EOM CCSD R0 for root 0 =   0.00000000000

Final Energetic Summary for Converged Roots of Irrep App
                     Excitation Energy              Total Energy
                (eV)     (cm^-1)     (au)             (au)
EOM State 1      0.073      590.8   0.0026921088  -138.094711439287

Largest components of excited wave function #1:
 RIA (libdpd indices) : (cscf notation)
         4 >   0      :       7ap >   2app :    0.5697285623
         4 >   1      :       7ap >   3app :    0.3776746931
         4 >   6      :       7ap >   8app :    0.0831473522
         4 >   3      :       7ap >   5app :    0.0750621535
         4 >   4      :       7ap >   6app :    0.0311070988
 Ria (libdpd indices) : (cscf notation)
         4 >   0      :       7ap >   2app :   -0.5697288882
         4 >   1      :       7ap >   3app :   -0.3776748963
         4 >   6      :       7ap >   8app :   -0.0831473936
         4 >   3      :       7ap >   5app :   -0.0750621721
         4 >   4      :       7ap >   6app :   -0.0311071322
 RIjAb (libdpd indices)     : (cscf notation)
        4   4 >   2   0     :    7ap    7ap >   10ap   2app :   -0.0204663241
        4   4 >   0   2     :    7ap    7ap >   2app   10ap :    0.0204663194
        4   4 >   7   0     :    7ap    7ap >   15ap   2app :    0.0201671951
        4   4 >   0   7     :    7ap    7ap >   2app   15ap :   -0.0201671858
        4   4 >   3   0     :    7ap    7ap >   11ap   2app :    0.0142676509
 RIJAB (libdpd indices)     : (cscf notation)
        4   2 >   0   7     :    7ap    5ap >   2app   15ap :   -0.0078493991
        3   2 >   0  11     :    6ap    5ap >   2app   19ap :   -0.0077677314
        4   1 >   0   9     :    7ap    4ap >   2app   17ap :   -0.0066817038
        4   1 >   0  19     :    7ap    4ap >   2app   27ap :   -0.0065922627
        3   2 >   0   7     :    6ap    5ap >   2app   15ap :    0.0064439072
 Rijab (libdpd indices)     : (cscf notation)
        4   2 >   0   7     :    7ap    5ap >   2app   15ap :    0.0078494044
        3   2 >   0  11     :    6ap    5ap >   2app   19ap :    0.0077677372
        4   1 >   0   9     :    7ap    4ap >   2app   17ap :    0.0066817075
        4   1 >   0  19     :    7ap    4ap >   2app   27ap :    0.0065922666
        3   2 >   0   7     :    6ap    5ap >   2app   15ap :   -0.0064439120

	Putting into environment energy for root of R irrep 2 and root 1.
	Putting into environment CURRENT ENERGY:             -138.0947114393

	Total # of sigma evaluations: 14

    Psi4 stopped on: Thursday, 18 August 2022 01:24PM
    Psi4 wall time for execution: 0:00:31.11


  //>>>>>>>>>>>>>>>>>>>>>>>>>>>>>>>>>>>//
  //      FiniteDifference Results     //
  //<<<<<<<<<<<<<<<<<<<<<<<<<<<<<<<<<<<//

  Computing gradient from energies.
    Using 3-point formula.
    Energy without displacement: -138.0946833342
    Check energies below for precision!
    Forces are for mass-weighted, symmetry-adapted cartesians [a0].

     Coord      Energy(-1)        Energy(+1)            Force
        0   -138.0947253254   -138.0946340529      0.0091272449
        1   -138.0946557488   -138.0947069991     -0.0051250294
        2   -138.0946534888   -138.0947114393     -0.0057950503
         -------------------------------------------------------------
 
Working directory   = /home/mdavis/f12eom_optimizer/tests/slurm
Scratch directory   = /scratch/mdavis/molpro_step_2022-08-18_13_24_52
Input  file         = molpro_step.inp
Output file         = molpro_step.out
MolPro executable   = /home/qc/molpro_2020.1/bin/molpro
 
Running MolPro on local host (node8)
    with 4 processes
    and  1 threads per process
 
/home/mdavis/f12eom_optimizer/tests/slurm/opt_log.out
iteration: 0
Here is the gradient
[-0.0412086019899331 -0.0202814772490301  0.
  0.0746144249011948 -0.0035669715260295  0.
 -0.0334058229112617  0.0238484487750596  0.                ]
Here is the updated geometry
	Fragment 1
	    H  -0.7550992090   1.4318040610   0.0000000000
	    C   0.1021687311   0.7662588837   0.0000000000
	    F  -0.0334575780  -0.5399869555   0.0000000000


iteration: 1
Here is the gradient
[-0.0404172591246796 -0.022376557476268   0.
  0.0731726772412489 -0.0019224787517957  0.
 -0.0327554181165693  0.0242990362280637  0.                ]
Here is the updated geometry
	Fragment 1
	    H  -0.7550466826   1.4337606574   0.0000000000
	    C   0.1009986477   0.7661638879   0.0000000000
	    F  -0.0323400210  -0.5418485561   0.0000000000


iteration: 2
Here is the gradient
[-0.0405089800759348 -0.022300559571776   0.
  0.0733285367905721 -0.0017402199025759  0.
 -0.0328195567146373  0.0240407794743519  0.                ]
Here is the updated geometry
	Fragment 1
	    H  -0.7550992778   1.4335071692   0.0000000000
	    C   0.1012451464   0.7664287633   0.0000000000
	    F  -0.0325339245  -0.5418599432   0.0000000000


iteration: 3
Here is the gradient
[-0.0404842503016129 -0.0223179537044508  0.
  0.0732786134183553 -0.001703213773417   0.
 -0.0327943631167424  0.0240211674778678  0.                ]
Here is the updated geometry
	Fragment 1
	    H  -0.7551142664   1.4335205332   0.0000000000
	    C   0.1012653795   0.7664774943   0.0000000000
	    F  -0.0325391691  -0.5419220382   0.0000000000


iteration: 4
Here is the gradient
[-0.040481773288178  -0.0223184744448942  0.
  0.0732726840657973 -0.0016908736548581  0.
 -0.0327909107776192  0.0240093480997524  0.                ]
Here is the updated geometry
	Fragment 1
	    H  -0.7551191448   1.4335152691   0.0000000000
	    C   0.1012775177   0.7664957372   0.0000000000
	    F  -0.0325464289  -0.5419350171   0.0000000000


iteration: 5
Here is the gradient
[-0.0404804746184778 -0.0223191151835404  0.
  0.0732698752176358 -0.0016872222983846  0.
 -0.032789400599158   0.024006337481925   0.                ]
Here is the updated geometry
	Fragment 1
	    H  -0.7551206157   1.4335146224   0.0000000000
	    C   0.1012806326   0.7665009857   0.0000000000
	    F  -0.0325480727  -0.5419396189   0.0000000000


