
  Memory set to   7.451 GiB by Python driver.
  Threads set to 4 by Python driver.

Scratch directory: /scratch/mdavis/PSI4_2022-08-19_14:20:19.512615905/

         ----------------------------------------------------------
                                   FINDIF
                     R. A. King and Jonathon Misiewicz
         ----------------------------------------------------------

  Using finite-differences of energies to determine gradients.
    Generating geometries for use with 3-point formula.
    Displacement size will be 5.00e-03.
    Number of atoms is 3.
    Number of symmetric SALCs is 3.
    Translations projected? 1. Rotations projected? 1.
    Number of geometries (including reference) is 7.
 7 displacements needed ...

  //>>>>>>>>>>>>>>>>>>>>>>>>>>>>>>>>>>>//
  //    FiniteDifference Computations  //
  //<<<<<<<<<<<<<<<<<<<<<<<<<<<<<<<<<<<//


    -----------------------------------------------------------------------
          Psi4: An Open-Source Ab Initio Electronic Structure Package
                               Psi4 1.6.1 release

                         Git: Rev {HEAD} 5b9f6e3 


    D. G. A. Smith, L. A. Burns, A. C. Simmonett, R. M. Parrish,
    M. C. Schieber, R. Galvelis, P. Kraus, H. Kruse, R. Di Remigio,
    A. Alenaizan, A. M. James, S. Lehtola, J. P. Misiewicz, M. Scheurer,
    R. A. Shaw, J. B. Schriber, Y. Xie, Z. L. Glick, D. A. Sirianni,
    J. S. O'Brien, J. M. Waldrop, A. Kumar, E. G. Hohenstein,
    B. P. Pritchard, B. R. Brooks, H. F. Schaefer III, A. Yu. Sokolov,
    K. Patkowski, A. E. DePrince III, U. Bozkaya, R. A. King,
    F. A. Evangelista, J. M. Turney, T. D. Crawford, C. D. Sherrill,
    J. Chem. Phys. 152(18) 184108 (2020). https://doi.org/10.1063/5.0006002

                            Additional Code Authors
    E. T. Seidl, C. L. Janssen, E. F. Valeev, M. L. Leininger,
    J. F. Gonthier, R. M. Richard, H. R. McAlexander, M. Saitow, X. Wang,
    P. Verma, M. H. Lechner, and A. Jiang

             Previous Authors, Complete List of Code Contributors,
                       and Citations for Specific Modules
    https://github.com/psi4/psi4/blob/master/codemeta.json
    https://github.com/psi4/psi4/graphs/contributors
    http://psicode.org/psi4manual/master/introduction.html#citing-psifour

    -----------------------------------------------------------------------


    Psi4 started on: Friday, 19 August 2022 02:20PM

    Process ID: 6357
    Host:       node17
    PSIDATADIR: /home/mdavis/anaconda3/envs/p4env/share/psi4
    Memory:     7.5 GiB
    Threads:    4
    
  ==> Input QCSchema <==

--------------------------------------------------------------------------
{'driver': 'energy',
 'extras': {'psiapi': True, 'wfn_qcvars_only': True},
 'id': None,
 'keywords': {'DERTYPE': 'NONE',
              'E_CONVERGENCE': 1e-08,
              'FREEZE_CORE': 'TRUE',
              'PARENT_SYMMETRY': 'Cs(Z)',
              'REFERENCE': 'ROHF',
              'ROOTS_PER_IRREP': [0, 1],
              'SCF__D_CONVERGENCE': 1e-10,
              'SCF__E_CONVERGENCE': 1e-10,
              'function_kwargs': {}},
 'model': {'basis': 'aug-cc-pvdz', 'method': 'ccsd'},
 'molecule': {'atom_labels': ['', '', ''],
              'atomic_numbers': [1, 6, 9],
              'fix_com': True,
              'fix_orientation': True,
              'fragment_charges': [0.0],
              'fragment_multiplicities': [1],
              'fragments': [[0, 1, 2]],
              'geometry': [-1.4422474354707318, 2.7550731902522476, 0.0, 0.18637294655370262, 1.4235415823285547, 0.0,
                           -0.04121095251012666, -1.0453052577420383, 0.0],
              'mass_numbers': [1, 12, 19],
              'masses': [1.00782503223, 12.0, 18.99840316273],
              'molecular_charge': 0.0,
              'molecular_multiplicity': 1,
              'name': 'CFH',
              'provenance': {'creator': 'QCElemental',
                             'routine': 'qcelemental.molparse.from_string',
                             'version': 'v0.25.0'},
              'real': [True, True, True],
              'schema_name': 'qcschema_molecule',
              'schema_version': 2,
              'symbols': ['H', 'C', 'F'],
              'validated': True},
 'protocols': {'stdout': True},
 'provenance': {'creator': 'QCElemental', 'routine': 'qcelemental.models.results', 'version': 'v0.25.0'},
 'schema_name': 'qcschema_input',
 'schema_version': 1}
--------------------------------------------------------------------------

Scratch directory: /scratch/mdavis/PSI4_2022-08-19_14:20:19.512615905/

*** tstart() called on node17
*** at Fri Aug 19 14:20:22 2022

   => Loading Basis Set <=

    Name: AUG-CC-PVDZ
    Role: ORBITAL
    Keyword: BASIS
    atoms 1 entry H          line    40 file /home/mdavis/anaconda3/envs/p4env/share/psi4/basis/aug-cc-pvdz.gbs 
    atoms 2 entry C          line   182 file /home/mdavis/anaconda3/envs/p4env/share/psi4/basis/aug-cc-pvdz.gbs 
    atoms 3 entry F          line   290 file /home/mdavis/anaconda3/envs/p4env/share/psi4/basis/aug-cc-pvdz.gbs 


         ---------------------------------------------------------
                                   SCF
               by Justin Turney, Rob Parrish, Andy Simmonett
                          and Daniel G. A. Smith
                             ROHF Reference
                        4 Threads,   7629 MiB Core
         ---------------------------------------------------------

  ==> Geometry <==

    Molecular point group: cs
    Full point group: Cs

    Geometry (in Bohr), charge = 0, multiplicity = 1:

       Center              X                  Y                   Z               Mass       
    ------------   -----------------  -----------------  -----------------  -----------------
         H           -1.442247435471     2.755073190252     0.000000000000     1.007825032230
         C            0.186372946554     1.423541582329     0.000000000000    12.000000000000
         F           -0.041210952510    -1.045305257742     0.000000000000    18.998403162730

  Running in cs symmetry.

  Rotational constants: A =     23.65003  B =      1.14174  C =      1.08916 [cm^-1]
  Rotational constants: A = 709009.93690  B =  34228.46556  C =  32652.13708 [MHz]
  Nuclear repulsion =   26.854389555552174

  Charge       = 0
  Multiplicity = 1
  Electrons    = 16
  Nalpha       = 8
  Nbeta        = 8

  ==> Algorithm <==

  SCF Algorithm Type is PK.
  DIIS enabled.
  MOM disabled.
  Fractional occupation disabled.
  Guess Type is SAD.
  Energy threshold   = 1.00e-10
  Density threshold  = 1.00e-10
  Integral threshold = 1.00e-12

  ==> Primary Basis <==

  Basis Set: AUG-CC-PVDZ
    Blend: AUG-CC-PVDZ
    Number of shells: 23
    Number of basis functions: 55
    Number of Cartesian functions: 59
    Spherical Harmonics?: true
    Max angular momentum: 2

  ==> Integral Setup <==

  Using in-core PK algorithm.
   Calculation information:
      Number of atoms:                   3
      Number of AO shells:              23
      Number of primitives:             57
      Number of atomic orbitals:        59
      Number of basis functions:        55

      Integral cutoff                 1.00e-12
      Number of threads:                 4

  Performing in-core PK
  Using 2373140 doubles for integral storage.
  We computed 49959 shell quartets total.
  Whereas there are 38226 unique shell quartets.
    30.69 percent of shell quartets recomputed by reordering.

  ==> DiskJK: Disk-Based J/K Matrices <==

    J tasked:                  Yes
    K tasked:                  Yes
    wK tasked:                  No
    Memory [MiB]:             5722
    Schwarz Cutoff:          1E-12

    OpenMP threads:              4

  Minimum eigenvalue in the overlap matrix is 1.0525139139E-03.
  Reciprocal condition number of the overlap matrix is 1.9883659914E-04.
    Using symmetric orthogonalization.

  ==> Pre-Iterations <==

  SCF Guess: Superposition of Atomic Densities via on-the-fly atomic UHF (no occupation information).

   -------------------------
    Irrep   Nso     Nmo    
   -------------------------
     A'        39      39 
     A"        16      16 
   -------------------------
    Total      55      55
   -------------------------

  ==> Iterations <==

                        Total Energy        Delta E     RMS |[F,P]|

   @ROHF iter SAD:  -137.04473065513508   -1.37045e+02   0.00000e+00 
   @ROHF iter   1:  -137.73533505150908   -6.90604e-01   3.28642e-03 DIIS
   @ROHF iter   2:  -137.75305714224149   -1.77221e-02   1.25327e-03 DIIS
   @ROHF iter   3:  -137.75534358267538   -2.28644e-03   5.16682e-04 DIIS
   @ROHF iter   4:  -137.75582014995757   -4.76567e-04   1.05551e-04 DIIS
   @ROHF iter   5:  -137.75587643211091   -5.62822e-05   3.55179e-05 DIIS
   @ROHF iter   6:  -137.75588375836165   -7.32625e-06   1.03156e-05 DIIS
   @ROHF iter   7:  -137.75588427346497   -5.15103e-07   1.81106e-06 DIIS
   @ROHF iter   8:  -137.75588428777664   -1.43117e-08   3.85399e-07 DIIS
   @ROHF iter   9:  -137.75588428850756   -7.30921e-10   8.79190e-08 DIIS
   @ROHF iter  10:  -137.75588428854235   -3.47882e-11   1.65777e-08 DIIS
   @ROHF iter  11:  -137.75588428854360   -1.25056e-12   2.60984e-09 DIIS
   @ROHF iter  12:  -137.75588428854360    0.00000e+00   6.10182e-10 DIIS
   @ROHF iter  13:  -137.75588428854348    1.13687e-13   1.83400e-10 DIIS
   @ROHF iter  14:  -137.75588428854360   -1.13687e-13   4.82202e-11 DIIS
  Energy and wave function converged.


  ==> Post-Iterations <==

    Orbital Energies [Eh]
    ---------------------

    Doubly Occupied:                                                      

       1Ap   -26.379150     2Ap   -11.376637     3Ap    -1.688243  
       4Ap    -0.925963     5Ap    -0.766986     1App   -0.719368  
       6Ap    -0.701845     7Ap    -0.378790  

    Singly Occupied:                                                      

    

    Virtual:                                                              

       8Ap     0.036466     2App    0.043303     9Ap     0.086857  
      10Ap     0.113351     3App    0.141860    11Ap     0.172143  
      12Ap     0.247412    13Ap     0.263368     4App    0.284351  
      14Ap     0.306461    15Ap     0.330300     5App    0.375346  
      16Ap     0.435374    17Ap     0.477519     6App    0.516981  
      18Ap     0.518750    19Ap     0.573364    20Ap     0.626018  
       7App    0.629288    21Ap     0.730426     8App    0.847491  
      22Ap     0.873678    23Ap     0.936704    24Ap     1.077509  
       9App    1.404539    25Ap     1.409332    26Ap     1.434066  
      10App    1.438453    11App    1.553549    27Ap     1.581071  
      28Ap     1.671260    12App    1.711578    29Ap     1.767489  
      30Ap     1.820350    13App    2.004602    31Ap     2.005658  
      14App    2.219341    32Ap     2.222598    33Ap     2.277081  
      34Ap     2.435366    35Ap     2.793633    36Ap     3.429820  
      15App    4.858966    37Ap     4.859335    16App    4.943141  
      38Ap     4.981440    39Ap     5.010279  

    Final Occupation by Irrep:
             Ap   App 
    DOCC [     7,    1 ]
    SOCC [     0,    0 ]

  @ROHF Final Energy:  -137.75588428854360

   => Energetics <=

    Nuclear Repulsion Energy =             26.8543895555521743
    One-Electron Energy =                -243.3465859781842084
    Two-Electron Energy =                  78.7363121340884504
    Total Energy =                       -137.7558842885435979

Computation Completed


Properties will be evaluated at   0.000000,   0.000000,   0.000000 [a0]

Properties computed using the SCF density matrix


 Multipole Moments:

 ------------------------------------------------------------------------------------
     Multipole            Electronic (a.u.)      Nuclear  (a.u.)        Total (a.u.)
 ------------------------------------------------------------------------------------

 L = 1.  Multiply by 2.5417464519 to convert [e a0] to [Debye]
 Dipole X            :         -0.0092061           -0.6949083           -0.7041144
 Dipole Y            :         -1.6500468            1.8885754            0.2385286
 Dipole Z            :          0.0000000            0.0000000            0.0000000
 Magnitude           :                                                    0.7434198

 ------------------------------------------------------------------------------------

*** tstop() called on node17 at Fri Aug 19 14:20:24 2022
Module time:
	user time   =       1.61 seconds =       0.03 minutes
	system time =       1.31 seconds =       0.02 minutes
	total time  =          2 seconds =       0.03 minutes
Total time:
	user time   =       1.61 seconds =       0.03 minutes
	system time =       1.31 seconds =       0.02 minutes
	total time  =          2 seconds =       0.03 minutes
 MINTS: Wrapper to libmints.
   by Justin Turney

   Calculation information:
      Number of threads:                 4
      Number of atoms:                   3
      Number of AO shells:              23
      Number of SO shells:              23
      Number of primitives:             57
      Number of atomic orbitals:        59
      Number of basis functions:        55

      Number of irreps:                  2
      Integral cutoff                 1.00e-12
      Number of functions per irrep: [  39   16 ]

 OEINTS: Overlap, kinetic, potential, dipole, and quadrupole integrals
         stored in file 35.

      Computing two-electron integrals...done
      Computed 584494 non-zero two-electron integrals.
        Stored in file 33.


*** tstart() called on node17
*** at Fri Aug 19 14:20:25 2022


	Wfn Parameters:
	--------------------
	Wavefunction         = CCSD
	Number of irreps     = 2
	Number of MOs        = 55
	Number of active MOs = 53
	AO-Basis             = NONE
	Semicanonical        = false
	Reference            = ROHF
	Print Level          = 1

	IRREP	# MOs	# FZDC	# DOCC	# SOCC	# VIRT	# FZVR
	-----	-----	------	------	------	------	------
	 Ap	   39	    2	    5	    0	    32	    0
	 App	   16	    0	    1	    0	    15	    0
	Transforming integrals...
	IWL integrals will be deleted.
	(OO|OO)...
	Presorting SO-basis two-electron integrals.
	Sorting File: SO Ints (nn|nn) nbuckets = 1
	Constructing frozen core operators
	Starting first half-transformation.
	Sorting half-transformed integrals.
	First half integral transformation complete.
	Starting second half-transformation.
	Two-electron integral transformation complete.
	(OO|OV)...
	Starting second half-transformation.
	Two-electron integral transformation complete.
	(OO|VV)...
	Starting second half-transformation.
	Two-electron integral transformation complete.
	(OV|OO)...
	Starting first half-transformation.
	Sorting half-transformed integrals.
	First half integral transformation complete.
	Starting second half-transformation.
	Two-electron integral transformation complete.
	(OV|OV)...
	Starting second half-transformation.
	Two-electron integral transformation complete.
	(OV|VV)...
	Starting second half-transformation.
	Two-electron integral transformation complete.
	(VV|OO)...
	Starting first half-transformation.
	Sorting half-transformed integrals.
	First half integral transformation complete.
	Starting second half-transformation.
	Two-electron integral transformation complete.
	(VV|OV)...
	Starting second half-transformation.
	Two-electron integral transformation complete.
	(VV|VV)...
	Starting second half-transformation.
	Two-electron integral transformation complete.
	Frozen core energy     =   -119.76871399310724

	Size of irrep 0 of <ab|cd> integrals:      1.560 (MW) /     12.480 (MB)
	Size of irrep 1 of <ab|cd> integrals:      0.922 (MW) /      7.373 (MB)
	Total:                                     2.482 (MW) /     19.853 (MB)

	Size of irrep 0 of <ia|bc> integrals:      0.219 (MW) /      1.749 (MB)
	Size of irrep 1 of <ia|bc> integrals:      0.103 (MW) /      0.822 (MB)
	Total:                                     0.321 (MW) /      2.570 (MB)

	Size of irrep 0 of tIjAb amplitudes:       0.032 (MW) /      0.260 (MB)
	Size of irrep 1 of tIjAb amplitudes:       0.010 (MW) /      0.077 (MB)
	Total:                                     0.042 (MW) /      0.337 (MB)

	Nuclear Rep. energy          =     26.85438955555217
	SCF energy                   =   -137.75588428854360
	One-electron energy          =    -79.32073067284203
	Two-electron (AA) energy     =      7.09165548584134
	Two-electron (BB) energy     =      7.09165548584134
	Two-electron (AB) energy     =     20.29585985017057
	Two-electron energy          =    -44.84155985098877
	Reference energy             =   -137.75588428854383

*** tstop() called on node17 at Fri Aug 19 14:20:28 2022
Module time:
	user time   =       0.36 seconds =       0.01 minutes
	system time =       0.34 seconds =       0.01 minutes
	total time  =          3 seconds =       0.05 minutes
Total time:
	user time   =       2.45 seconds =       0.04 minutes
	system time =       2.20 seconds =       0.04 minutes
	total time  =          6 seconds =       0.10 minutes
            **************************
            *                        *
            *        CCENERGY        *
            *                        *
            **************************

    Nuclear Rep. energy (wfn)     =   26.854389555552174
    SCF energy          (wfn)     = -137.755884288543598
    Reference energy    (file100) = -137.755884288543825

    Input parameters:
    -----------------
    Wave function   =     CCSD
    Reference wfn   =     ROHF
    Brueckner       =     No
    Memory (Mbytes) =     8000.0
    Maxiter         =     50
    R_Convergence   =     1.0e-07
    E_Convergence   =     1.0e-08
    Restart         =     Yes
    DIIS            =     Yes
    AO Basis        =     NONE
    ABCD            =     NEW
    Cache Level     =     2
    Cache Type      =     LOW
    Print Level     =     1
    Num. of threads =     4
    # Amps to Print =     10
    Print MP2 Amps? =     No
    Analyze T2 Amps =     No
    Print Pair Ener =     No
    Local CC        =     No
    SCS-MP2         =     False
    SCSN-MP2        =     False
    SCS-CCSD        =     False

                Solving CC Amplitude Equations
                ------------------------------
  Iter             Energy              RMS        T1Diag      D1Diag    New D1Diag    D2Diag
  ----     ---------------------    ---------   ----------  ----------  ----------   --------
     0        -0.318347766984420    0.000e+00    0.000000    0.000000    0.000000    0.000000
     1        -0.324590617204158    9.063e-02    0.014725    0.041479    0.041479    0.000000
     2        -0.335059937799113    3.287e-02    0.014342    0.040338    0.040338    0.000000
     3        -0.339299920981117    2.138e-02    0.018500    0.053203    0.053203    0.000000
     4        -0.339266756993871    7.760e-03    0.019727    0.056997    0.056997    0.000000
     5        -0.339295453747999    3.723e-03    0.020108    0.058215    0.058215    0.000000
     6        -0.339392999102773    1.647e-03    0.020092    0.058039    0.058039    0.000000
     7        -0.339397373248431    7.408e-04    0.020007    0.057662    0.057662    0.000000
     8        -0.339401992265799    3.144e-04    0.019960    0.057473    0.057473    0.000000
     9        -0.339408142324386    1.224e-04    0.019939    0.057394    0.057394    0.000000
    10        -0.339405756060533    4.547e-05    0.019932    0.057373    0.057373    0.000000
    11        -0.339406497014153    1.837e-05    0.019929    0.057364    0.057364    0.000000
    12        -0.339406715412674    6.427e-06    0.019929    0.057364    0.057364    0.000000
    13        -0.339406879199145    2.865e-06    0.019929    0.057364    0.057364    0.000000
    14        -0.339406960260802    1.178e-06    0.019929    0.057365    0.057365    0.000000
    15        -0.339406985299624    4.777e-07    0.019929    0.057365    0.057365    0.000000
    16        -0.339406988775396    2.413e-07    0.019929    0.057365    0.057365    0.000000
    17        -0.339406991733194    1.181e-07    0.019929    0.057365    0.057365    0.000000
    18        -0.339406993147722    6.595e-08    0.019929    0.057365    0.057365    0.000000

    Iterations converged.


    Largest TIA Amplitudes:
              5  32         0.0453788347
              5  33         0.0304531252
              4   5         0.0145004680
              4   6         0.0112252197
              5  34         0.0105797136
              2   5        -0.0099716073
              4   4         0.0097006238
              4   1         0.0088766860
              5  38         0.0082309400
              5  36         0.0081010131

    Largest Tia Amplitudes:
              5  32         0.0453788347
              5  33         0.0304531252
              4   5         0.0145004680
              4   6         0.0112252197
              5  34         0.0105797136
              2   5        -0.0099716073
              4   4         0.0097006238
              4   1         0.0088766860
              5  38         0.0082309400
              5  36         0.0081010131

    Largest TIJAB Amplitudes:
      5   3  32  11        -0.0097421278
      5   2  42  21        -0.0078670377
      5   3  42  22        -0.0077062823
      5   3  32   4        -0.0074823728
      5   3  32   9        -0.0074437443
      5   3  39  17         0.0072845371
      5   2  40  18        -0.0072265612
      5   2  39  17        -0.0071841296
      4   3  12   7         0.0069996217
      5   3  33  11        -0.0067633414

    Largest Tijab Amplitudes:
      5   3  32  11        -0.0097421278
      5   2  42  21        -0.0078670377
      5   3  42  22        -0.0077062823
      5   3  32   4        -0.0074823728
      5   3  32   9        -0.0074437443
      5   3  39  17         0.0072845371
      5   2  40  18        -0.0072265612
      5   2  39  17        -0.0071841296
      4   3  12   7         0.0069996217
      5   3  33  11        -0.0067633414

    Largest TIjAb Amplitudes:
      4   4  32  32        -0.0726277071
      4   4  32  33        -0.0546599836
      4   4  33  32        -0.0546599836
      4   4  33  33        -0.0410922527
      5   5  32  32        -0.0261971029
      4   4   7   7        -0.0261524601
      4   4  32  35        -0.0244477503
      4   4  35  32        -0.0244477503
      5   5  42  42        -0.0223458294
      4   4  33  35        -0.0186926924

    SCF energy       (wfn)                    = -137.755884288543598
    Reference energy (file100)                = -137.755884288543825

    Opposite-spin CCSD correlation energy     =   -0.267777130477927
    Same-spin CCSD correlation energy         =   -0.071629862773396
    Singles CCSD correlation energy           =    0.000000000103601
    CCSD correlation energy                   =   -0.339406993147722
      * CCSD total energy                     = -138.095291281691544


    Psi4 stopped on: Friday, 19 August 2022 02:20PM
    Psi4 wall time for execution: 0:00:15.58


    -----------------------------------------------------------------------
          Psi4: An Open-Source Ab Initio Electronic Structure Package
                               Psi4 1.6.1 release

                         Git: Rev {HEAD} 5b9f6e3 


    D. G. A. Smith, L. A. Burns, A. C. Simmonett, R. M. Parrish,
    M. C. Schieber, R. Galvelis, P. Kraus, H. Kruse, R. Di Remigio,
    A. Alenaizan, A. M. James, S. Lehtola, J. P. Misiewicz, M. Scheurer,
    R. A. Shaw, J. B. Schriber, Y. Xie, Z. L. Glick, D. A. Sirianni,
    J. S. O'Brien, J. M. Waldrop, A. Kumar, E. G. Hohenstein,
    B. P. Pritchard, B. R. Brooks, H. F. Schaefer III, A. Yu. Sokolov,
    K. Patkowski, A. E. DePrince III, U. Bozkaya, R. A. King,
    F. A. Evangelista, J. M. Turney, T. D. Crawford, C. D. Sherrill,
    J. Chem. Phys. 152(18) 184108 (2020). https://doi.org/10.1063/5.0006002

                            Additional Code Authors
    E. T. Seidl, C. L. Janssen, E. F. Valeev, M. L. Leininger,
    J. F. Gonthier, R. M. Richard, H. R. McAlexander, M. Saitow, X. Wang,
    P. Verma, M. H. Lechner, and A. Jiang

             Previous Authors, Complete List of Code Contributors,
                       and Citations for Specific Modules
    https://github.com/psi4/psi4/blob/master/codemeta.json
    https://github.com/psi4/psi4/graphs/contributors
    http://psicode.org/psi4manual/master/introduction.html#citing-psifour

    -----------------------------------------------------------------------


    Psi4 started on: Friday, 19 August 2022 02:20PM

    Process ID: 6357
    Host:       node17
    PSIDATADIR: /home/mdavis/anaconda3/envs/p4env/share/psi4
    Memory:     7.5 GiB
    Threads:    4
    
  ==> Input QCSchema <==

--------------------------------------------------------------------------
{'driver': 'energy',
 'extras': {'psiapi': True, 'wfn_qcvars_only': True},
 'id': None,
 'keywords': {'DERTYPE': 'NONE',
              'E_CONVERGENCE': 1e-08,
              'FREEZE_CORE': 'TRUE',
              'PARENT_SYMMETRY': 'Cs(Z)',
              'REFERENCE': 'ROHF',
              'ROOTS_PER_IRREP': [0, 1],
              'SCF__D_CONVERGENCE': 1e-10,
              'SCF__E_CONVERGENCE': 1e-10,
              'function_kwargs': {}},
 'model': {'basis': 'aug-cc-pvdz', 'method': 'ccsd'},
 'molecule': {'atom_labels': ['', '', ''],
              'atomic_numbers': [1, 6, 9],
              'fix_com': True,
              'fix_orientation': True,
              'fragment_charges': [0.0],
              'fragment_multiplicities': [1],
              'fragments': [[0, 1, 2]],
              'geometry': [-1.4467852283892444, 2.7554692538507646, 0.0, 0.18693600492596527, 1.423490401415999, 0.0,
                           -0.04132587791486186, -1.0452939405729118, 0.0],
              'mass_numbers': [1, 12, 19],
              'masses': [1.00782503223, 12.0, 18.99840316273],
              'molecular_charge': 0.0,
              'molecular_multiplicity': 1,
              'name': 'CFH',
              'provenance': {'creator': 'QCElemental',
                             'routine': 'qcelemental.molparse.from_string',
                             'version': 'v0.25.0'},
              'real': [True, True, True],
              'schema_name': 'qcschema_molecule',
              'schema_version': 2,
              'symbols': ['H', 'C', 'F'],
              'validated': True},
 'protocols': {'stdout': True},
 'provenance': {'creator': 'QCElemental', 'routine': 'qcelemental.models.results', 'version': 'v0.25.0'},
 'schema_name': 'qcschema_input',
 'schema_version': 1}
--------------------------------------------------------------------------

Scratch directory: /scratch/mdavis/PSI4_2022-08-19_14:20:19.512615905/

*** tstart() called on node17
*** at Fri Aug 19 14:20:37 2022

   => Loading Basis Set <=

    Name: AUG-CC-PVDZ
    Role: ORBITAL
    Keyword: BASIS
    atoms 1 entry H          line    40 file /home/mdavis/anaconda3/envs/p4env/share/psi4/basis/aug-cc-pvdz.gbs 
    atoms 2 entry C          line   182 file /home/mdavis/anaconda3/envs/p4env/share/psi4/basis/aug-cc-pvdz.gbs 
    atoms 3 entry F          line   290 file /home/mdavis/anaconda3/envs/p4env/share/psi4/basis/aug-cc-pvdz.gbs 


         ---------------------------------------------------------
                                   SCF
               by Justin Turney, Rob Parrish, Andy Simmonett
                          and Daniel G. A. Smith
                             ROHF Reference
                        4 Threads,   7629 MiB Core
         ---------------------------------------------------------

  ==> Geometry <==

    Molecular point group: cs
    Full point group: Cs

    Geometry (in Bohr), charge = 0, multiplicity = 1:

       Center              X                  Y                   Z               Mass       
    ------------   -----------------  -----------------  -----------------  -----------------
         H           -1.446785228389     2.755469253851     0.000000000000     1.007825032230
         C            0.186936004926     1.423490401416     0.000000000000    12.000000000000
         F           -0.041325877915    -1.045293940573     0.000000000000    18.998403162730

  Running in cs symmetry.

  Rotational constants: A =     23.50308  B =      1.14174  C =      1.08884 [cm^-1]
  Rotational constants: A = 704604.55371  B =  34228.46444  C =  32642.73702 [MHz]
  Nuclear repulsion =   26.847621749079252

  Charge       = 0
  Multiplicity = 1
  Electrons    = 16
  Nalpha       = 8
  Nbeta        = 8

  ==> Algorithm <==

  SCF Algorithm Type is PK.
  DIIS enabled.
  MOM disabled.
  Fractional occupation disabled.
  Guess Type is SAD.
  Energy threshold   = 1.00e-10
  Density threshold  = 1.00e-10
  Integral threshold = 1.00e-12

  ==> Primary Basis <==

  Basis Set: AUG-CC-PVDZ
    Blend: AUG-CC-PVDZ
    Number of shells: 23
    Number of basis functions: 55
    Number of Cartesian functions: 59
    Spherical Harmonics?: true
    Max angular momentum: 2

  ==> Integral Setup <==

  Using in-core PK algorithm.
   Calculation information:
      Number of atoms:                   3
      Number of AO shells:              23
      Number of primitives:             57
      Number of atomic orbitals:        59
      Number of basis functions:        55

      Integral cutoff                 1.00e-12
      Number of threads:                 4

  Performing in-core PK
  Using 2373140 doubles for integral storage.
  We computed 49959 shell quartets total.
  Whereas there are 38226 unique shell quartets.
    30.69 percent of shell quartets recomputed by reordering.

  ==> DiskJK: Disk-Based J/K Matrices <==

    J tasked:                  Yes
    K tasked:                  Yes
    wK tasked:                  No
    Memory [MiB]:             5722
    Schwarz Cutoff:          1E-12

    OpenMP threads:              4

  Minimum eigenvalue in the overlap matrix is 1.0579432706E-03.
  Reciprocal condition number of the overlap matrix is 1.9990352130E-04.
    Using symmetric orthogonalization.

  ==> Pre-Iterations <==

  SCF Guess: Superposition of Atomic Densities via on-the-fly atomic UHF (no occupation information).

   -------------------------
    Irrep   Nso     Nmo    
   -------------------------
     A'        39      39 
     A"        16      16 
   -------------------------
    Total      55      55
   -------------------------

  ==> Iterations <==

                        Total Energy        Delta E     RMS |[F,P]|

   @ROHF iter SAD:  -137.04411345004041   -1.37044e+02   0.00000e+00 
   @ROHF iter   1:  -137.73546294056194   -6.91349e-01   3.28856e-03 DIIS
   @ROHF iter   2:  -137.75318975457964   -1.77268e-02   1.25658e-03 DIIS
   @ROHF iter   3:  -137.75548407723409   -2.29432e-03   5.16665e-04 DIIS
   @ROHF iter   4:  -137.75596036341594   -4.76286e-04   1.05447e-04 DIIS
   @ROHF iter   5:  -137.75601644518713   -5.60818e-05   3.54703e-05 DIIS
   @ROHF iter   6:  -137.75602374180556   -7.29662e-06   1.03182e-05 DIIS
   @ROHF iter   7:  -137.75602425685139   -5.15046e-07   1.81054e-06 DIIS
   @ROHF iter   8:  -137.75602427116220   -1.43108e-08   3.84268e-07 DIIS
   @ROHF iter   9:  -137.75602427188963   -7.27425e-10   8.73597e-08 DIIS
   @ROHF iter  10:  -137.75602427192399   -3.43618e-11   1.64643e-08 DIIS
   @ROHF iter  11:  -137.75602427192527   -1.27898e-12   2.53025e-09 DIIS
   @ROHF iter  12:  -137.75602427192518    8.52651e-14   5.50986e-10 DIIS
   @ROHF iter  13:  -137.75602427192518    0.00000e+00   1.62394e-10 DIIS
   @ROHF iter  14:  -137.75602427192518    0.00000e+00   4.61587e-11 DIIS
  Energy and wave function converged.


  ==> Post-Iterations <==

    Orbital Energies [Eh]
    ---------------------

    Doubly Occupied:                                                      

       1Ap   -26.379184     2Ap   -11.376939     3Ap    -1.688311  
       4Ap    -0.925786     5Ap    -0.766798     1App   -0.719413  
       6Ap    -0.701435     7Ap    -0.378937  

    Singly Occupied:                                                      

    

    Virtual:                                                              

       8Ap     0.036490     2App    0.043302     9Ap     0.086861  
      10Ap     0.113370     3App    0.141857    11Ap     0.172112  
      12Ap     0.247430    13Ap     0.263134     4App    0.284357  
      14Ap     0.306376    15Ap     0.330070     5App    0.375155  
      16Ap     0.435366    17Ap     0.477637     6App    0.517131  
      18Ap     0.518713    19Ap     0.573454    20Ap     0.625627  
       7App    0.629068    21Ap     0.730133     8App    0.847378  
      22Ap     0.873413    23Ap     0.935967    24Ap     1.077247  
       9App    1.404523    25Ap     1.409137    26Ap     1.434206  
      10App    1.438400    11App    1.553319    27Ap     1.580943  
      28Ap     1.671546    12App    1.711473    29Ap     1.767528  
      30Ap     1.820332    31Ap     2.004530    13App    2.004623  
      14App    2.218009    32Ap     2.220490    33Ap     2.276763  
      34Ap     2.433459    35Ap     2.789296    36Ap     3.429386  
      15App    4.858849    37Ap     4.859269    16App    4.943093  
      38Ap     4.981386    39Ap     5.010098  

    Final Occupation by Irrep:
             Ap   App 
    DOCC [     7,    1 ]
    SOCC [     0,    0 ]

  @ROHF Final Energy:  -137.75602427192518

   => Energetics <=

    Nuclear Repulsion Energy =             26.8476217490792521
    One-Electron Energy =                -243.3336871812700792
    Two-Electron Energy =                  78.7300411602656425
    Total Energy =                       -137.7560242719251846

Computation Completed


Properties will be evaluated at   0.000000,   0.000000,   0.000000 [a0]

Properties computed using the SCF density matrix


 Multipole Moments:

 ------------------------------------------------------------------------------------
     Multipole            Electronic (a.u.)      Nuclear  (a.u.)        Total (a.u.)
 ------------------------------------------------------------------------------------

 L = 1.  Multiply by 2.5417464519 to convert [e a0] to [Debye]
 Dipole X            :         -0.0055908           -0.6971021           -0.7026929
 Dipole Y            :         -1.6509963            1.8887662            0.2377699
 Dipole Z            :          0.0000000            0.0000000            0.0000000
 Magnitude           :                                                    0.7418300

 ------------------------------------------------------------------------------------

*** tstop() called on node17 at Fri Aug 19 14:20:39 2022
Module time:
	user time   =       1.62 seconds =       0.03 minutes
	system time =       0.96 seconds =       0.02 minutes
	total time  =          2 seconds =       0.03 minutes
Total time:
	user time   =      11.66 seconds =       0.19 minutes
	system time =      13.09 seconds =       0.22 minutes
	total time  =         17 seconds =       0.28 minutes
 MINTS: Wrapper to libmints.
   by Justin Turney

   Calculation information:
      Number of threads:                 4
      Number of atoms:                   3
      Number of AO shells:              23
      Number of SO shells:              23
      Number of primitives:             57
      Number of atomic orbitals:        59
      Number of basis functions:        55

      Number of irreps:                  2
      Integral cutoff                 1.00e-12
      Number of functions per irrep: [  39   16 ]

 OEINTS: Overlap, kinetic, potential, dipole, and quadrupole integrals
         stored in file 35.

      Computing two-electron integrals...done
      Computed 584494 non-zero two-electron integrals.
        Stored in file 33.


*** tstart() called on node17
*** at Fri Aug 19 14:20:39 2022


	Wfn Parameters:
	--------------------
	Wavefunction         = CCSD
	Number of irreps     = 2
	Number of MOs        = 55
	Number of active MOs = 53
	AO-Basis             = NONE
	Semicanonical        = false
	Reference            = ROHF
	Print Level          = 1

	IRREP	# MOs	# FZDC	# DOCC	# SOCC	# VIRT	# FZVR
	-----	-----	------	------	------	------	------
	 Ap	   39	    2	    5	    0	    32	    0
	 App	   16	    0	    1	    0	    15	    0
	Transforming integrals...
	IWL integrals will be deleted.
	(OO|OO)...
	Presorting SO-basis two-electron integrals.
	Sorting File: SO Ints (nn|nn) nbuckets = 1
	Constructing frozen core operators
	Starting first half-transformation.
	Sorting half-transformed integrals.
	First half integral transformation complete.
	Starting second half-transformation.
	Two-electron integral transformation complete.
	(OO|OV)...
	Starting second half-transformation.
	Two-electron integral transformation complete.
	(OO|VV)...
	Starting second half-transformation.
	Two-electron integral transformation complete.
	(OV|OO)...
	Starting first half-transformation.
	Sorting half-transformed integrals.
	First half integral transformation complete.
	Starting second half-transformation.
	Two-electron integral transformation complete.
	(OV|OV)...
	Starting second half-transformation.
	Two-electron integral transformation complete.
	(OV|VV)...
	Starting second half-transformation.
	Two-electron integral transformation complete.
	(VV|OO)...
	Starting first half-transformation.
	Sorting half-transformed integrals.
	First half integral transformation complete.
	Starting second half-transformation.
	Two-electron integral transformation complete.
	(VV|OV)...
	Starting second half-transformation.
	Two-electron integral transformation complete.
	(VV|VV)...
	Starting second half-transformation.
	Two-electron integral transformation complete.
	Frozen core energy     =   -119.76657713323607

	Size of irrep 0 of <ab|cd> integrals:      1.560 (MW) /     12.480 (MB)
	Size of irrep 1 of <ab|cd> integrals:      0.922 (MW) /      7.373 (MB)
	Total:                                     2.482 (MW) /     19.853 (MB)

	Size of irrep 0 of <ia|bc> integrals:      0.219 (MW) /      1.749 (MB)
	Size of irrep 1 of <ia|bc> integrals:      0.103 (MW) /      0.822 (MB)
	Total:                                     0.321 (MW) /      2.570 (MB)

	Size of irrep 0 of tIjAb amplitudes:       0.032 (MW) /      0.260 (MB)
	Size of irrep 1 of tIjAb amplitudes:       0.010 (MW) /      0.077 (MB)
	Total:                                     0.042 (MW) /      0.337 (MB)

	Nuclear Rep. energy          =     26.84762174907925
	SCF energy                   =   -137.75602427192518
	One-electron energy          =    -79.31277934149055
	Two-electron (AA) energy     =      7.09098579163706
	Two-electron (BB) energy     =      7.09098579163706
	Two-electron (AB) energy     =     20.29373887044827
	Two-electron energy          =    -44.83706888776818
	Reference energy             =   -137.75602427192499

*** tstop() called on node17 at Fri Aug 19 14:20:40 2022
Module time:
	user time   =       0.29 seconds =       0.00 minutes
	system time =       0.16 seconds =       0.00 minutes
	total time  =          1 seconds =       0.02 minutes
Total time:
	user time   =      12.35 seconds =       0.21 minutes
	system time =      13.53 seconds =       0.23 minutes
	total time  =         18 seconds =       0.30 minutes
            **************************
            *                        *
            *        CCENERGY        *
            *                        *
            **************************

    Nuclear Rep. energy (wfn)     =   26.847621749079252
    SCF energy          (wfn)     = -137.756024271925185
    Reference energy    (file100) = -137.756024271924986

    Input parameters:
    -----------------
    Wave function   =     CCSD
    Reference wfn   =     ROHF
    Brueckner       =     No
    Memory (Mbytes) =     8000.0
    Maxiter         =     50
    R_Convergence   =     1.0e-07
    E_Convergence   =     1.0e-08
    Restart         =     Yes
    DIIS            =     Yes
    AO Basis        =     NONE
    ABCD            =     NEW
    Cache Level     =     2
    Cache Type      =     LOW
    Print Level     =     1
    Num. of threads =     4
    # Amps to Print =     10
    Print MP2 Amps? =     No
    Analyze T2 Amps =     No
    Print Pair Ener =     No
    Local CC        =     No
    SCS-MP2         =     False
    SCSN-MP2        =     False
    SCS-CCSD        =     False

                Solving CC Amplitude Equations
                ------------------------------
  Iter             Energy              RMS        T1Diag      D1Diag    New D1Diag    D2Diag
  ----     ---------------------    ---------   ----------  ----------  ----------   --------
     0        -0.318393814828230    0.000e+00    0.000000    0.000000    0.000000    0.000000
     1        -0.324639961691246    9.066e-02    0.014729    0.041483    0.041483    0.000000
     2        -0.335116744343541    3.288e-02    0.014345    0.040335    0.040335    0.000000
     3        -0.339359669411867    2.138e-02    0.018503    0.053195    0.053195    0.000000
     4        -0.339326184814271    7.744e-03    0.019729    0.056982    0.056982    0.000000
     5        -0.339354338726510    3.713e-03    0.020110    0.058199    0.058199    0.000000
     6        -0.339451333797235    1.640e-03    0.020095    0.058028    0.058028    0.000000
     7        -0.339455589019768    7.383e-04    0.020011    0.057653    0.057653    0.000000
     8        -0.339460141284470    3.136e-04    0.019963    0.057466    0.057466    0.000000
     9        -0.339466291825490    1.222e-04    0.019943    0.057387    0.057387    0.000000
    10        -0.339463909424278    4.535e-05    0.019936    0.057366    0.057366    0.000000
    11        -0.339464647407567    1.832e-05    0.019933    0.057357    0.057357    0.000000
    12        -0.339464864797868    6.405e-06    0.019933    0.057357    0.057357    0.000000
    13        -0.339465027852330    2.853e-06    0.019932    0.057357    0.057357    0.000000
    14        -0.339465108537114    1.172e-06    0.019932    0.057358    0.057358    0.000000
    15        -0.339465133567821    4.745e-07    0.019932    0.057358    0.057358    0.000000
    16        -0.339465137000876    2.395e-07    0.019932    0.057358    0.057358    0.000000
    17        -0.339465139928757    1.170e-07    0.019932    0.057358    0.057358    0.000000
    18        -0.339465141316910    6.522e-08    0.019932    0.057358    0.057358    0.000000

    Iterations converged.


    Largest TIA Amplitudes:
              5  32         0.0453769652
              5  33         0.0304461910
              4   5         0.0145605443
              4   6         0.0112115956
              5  34         0.0105745781
              2   5        -0.0100165233
              4   4         0.0097371224
              4   1         0.0088710609
              5  38         0.0082281397
              5  36         0.0080988894

    Largest Tia Amplitudes:
              5  32         0.0453769652
              5  33         0.0304461910
              4   5         0.0145605443
              4   6         0.0112115956
              5  34         0.0105745781
              2   5        -0.0100165233
              4   4         0.0097371224
              4   1         0.0088710609
              5  38         0.0082281397
              5  36         0.0080988894

    Largest TIJAB Amplitudes:
      5   3  32  11        -0.0097213262
      5   2  42  21        -0.0078725200
      5   3  42  22        -0.0076931220
      5   3  32   4        -0.0074953777
      5   3  32   9        -0.0074672711
      5   3  39  17         0.0072494115
      5   2  39  17        -0.0072427171
      5   2  40  18        -0.0072218033
      4   3  12   7         0.0070415443
      5   3  33  11        -0.0067520750

    Largest Tijab Amplitudes:
      5   3  32  11        -0.0097213262
      5   2  42  21        -0.0078725200
      5   3  42  22        -0.0076931220
      5   3  32   4        -0.0074953777
      5   3  32   9        -0.0074672711
      5   3  39  17         0.0072494115
      5   2  39  17        -0.0072427171
      5   2  40  18        -0.0072218033
      4   3  12   7         0.0070415443
      5   3  33  11        -0.0067520750

    Largest TIjAb Amplitudes:
      4   4  32  32        -0.0724851352
      4   4  32  33        -0.0545538218
      4   4  33  32        -0.0545538218
      4   4  33  33        -0.0410150272
      5   5  32  32        -0.0262030123
      4   4   7   7        -0.0260842950
      4   4  32  35        -0.0243826794
      4   4  35  32        -0.0243826794
      5   5  42  42        -0.0223610980
      4   4  33  35        -0.0186496132

    SCF energy       (wfn)                    = -137.756024271925185
    Reference energy (file100)                = -137.756024271924986

    Opposite-spin CCSD correlation energy     =   -0.267834640710884
    Same-spin CCSD correlation energy         =   -0.071630500704388
    Singles CCSD correlation energy           =    0.000000000098363
    CCSD correlation energy                   =   -0.339465141316910
      * CCSD total energy                     = -138.095489413241893


    Psi4 stopped on: Friday, 19 August 2022 02:20PM
    Psi4 wall time for execution: 0:00:11.10


    -----------------------------------------------------------------------
          Psi4: An Open-Source Ab Initio Electronic Structure Package
                               Psi4 1.6.1 release

                         Git: Rev {HEAD} 5b9f6e3 


    D. G. A. Smith, L. A. Burns, A. C. Simmonett, R. M. Parrish,
    M. C. Schieber, R. Galvelis, P. Kraus, H. Kruse, R. Di Remigio,
    A. Alenaizan, A. M. James, S. Lehtola, J. P. Misiewicz, M. Scheurer,
    R. A. Shaw, J. B. Schriber, Y. Xie, Z. L. Glick, D. A. Sirianni,
    J. S. O'Brien, J. M. Waldrop, A. Kumar, E. G. Hohenstein,
    B. P. Pritchard, B. R. Brooks, H. F. Schaefer III, A. Yu. Sokolov,
    K. Patkowski, A. E. DePrince III, U. Bozkaya, R. A. King,
    F. A. Evangelista, J. M. Turney, T. D. Crawford, C. D. Sherrill,
    J. Chem. Phys. 152(18) 184108 (2020). https://doi.org/10.1063/5.0006002

                            Additional Code Authors
    E. T. Seidl, C. L. Janssen, E. F. Valeev, M. L. Leininger,
    J. F. Gonthier, R. M. Richard, H. R. McAlexander, M. Saitow, X. Wang,
    P. Verma, M. H. Lechner, and A. Jiang

             Previous Authors, Complete List of Code Contributors,
                       and Citations for Specific Modules
    https://github.com/psi4/psi4/blob/master/codemeta.json
    https://github.com/psi4/psi4/graphs/contributors
    http://psicode.org/psi4manual/master/introduction.html#citing-psifour

    -----------------------------------------------------------------------


    Psi4 started on: Friday, 19 August 2022 02:20PM

    Process ID: 6357
    Host:       node17
    PSIDATADIR: /home/mdavis/anaconda3/envs/p4env/share/psi4
    Memory:     7.5 GiB
    Threads:    4
    
  ==> Input QCSchema <==

--------------------------------------------------------------------------
{'driver': 'energy',
 'extras': {'psiapi': True, 'wfn_qcvars_only': True},
 'id': None,
 'keywords': {'DERTYPE': 'NONE',
              'E_CONVERGENCE': 1e-08,
              'FREEZE_CORE': 'TRUE',
              'PARENT_SYMMETRY': 'Cs(Z)',
              'REFERENCE': 'ROHF',
              'ROOTS_PER_IRREP': [0, 1],
              'SCF__D_CONVERGENCE': 1e-10,
              'SCF__E_CONVERGENCE': 1e-10,
              'function_kwargs': {}},
 'model': {'basis': 'aug-cc-pvdz', 'method': 'ccsd'},
 'molecule': {'atom_labels': ['', '', ''],
              'atomic_numbers': [1, 6, 9],
              'fix_com': True,
              'fix_orientation': True,
              'fragment_charges': [0.0],
              'fragment_multiplicities': [1],
              'fragments': [[0, 1, 2]],
              'geometry': [-1.4377096425522191, 2.7546771266537307, 0.0, 0.18580988818143995, 1.4235927632411103, 0.0,
                           -0.04109602710539146, -1.0453165749111648, 0.0],
              'mass_numbers': [1, 12, 19],
              'masses': [1.00782503223, 12.0, 18.99840316273],
              'molecular_charge': 0.0,
              'molecular_multiplicity': 1,
              'name': 'CFH',
              'provenance': {'creator': 'QCElemental',
                             'routine': 'qcelemental.molparse.from_string',
                             'version': 'v0.25.0'},
              'real': [True, True, True],
              'schema_name': 'qcschema_molecule',
              'schema_version': 2,
              'symbols': ['H', 'C', 'F'],
              'validated': True},
 'protocols': {'stdout': True},
 'provenance': {'creator': 'QCElemental', 'routine': 'qcelemental.models.results', 'version': 'v0.25.0'},
 'schema_name': 'qcschema_input',
 'schema_version': 1}
--------------------------------------------------------------------------

Scratch directory: /scratch/mdavis/PSI4_2022-08-19_14:20:19.512615905/

*** tstart() called on node17
*** at Fri Aug 19 14:20:49 2022

   => Loading Basis Set <=

    Name: AUG-CC-PVDZ
    Role: ORBITAL
    Keyword: BASIS
    atoms 1 entry H          line    40 file /home/mdavis/anaconda3/envs/p4env/share/psi4/basis/aug-cc-pvdz.gbs 
    atoms 2 entry C          line   182 file /home/mdavis/anaconda3/envs/p4env/share/psi4/basis/aug-cc-pvdz.gbs 
    atoms 3 entry F          line   290 file /home/mdavis/anaconda3/envs/p4env/share/psi4/basis/aug-cc-pvdz.gbs 


         ---------------------------------------------------------
                                   SCF
               by Justin Turney, Rob Parrish, Andy Simmonett
                          and Daniel G. A. Smith
                             ROHF Reference
                        4 Threads,   7629 MiB Core
         ---------------------------------------------------------

  ==> Geometry <==

    Molecular point group: cs
    Full point group: Cs

    Geometry (in Bohr), charge = 0, multiplicity = 1:

       Center              X                  Y                   Z               Mass       
    ------------   -----------------  -----------------  -----------------  -----------------
         H           -1.437709642552     2.754677126654     0.000000000000     1.007825032230
         C            0.185809888181     1.423592763241     0.000000000000    12.000000000000
         F           -0.041096027105    -1.045316574911     0.000000000000    18.998403162730

  Running in cs symmetry.

  Rotational constants: A =     23.79836  B =      1.14174  C =      1.08947 [cm^-1]
  Rotational constants: A = 713456.78184  B =  34228.46637  C =  32661.51301 [MHz]
  Nuclear repulsion =   26.861172234952420

  Charge       = 0
  Multiplicity = 1
  Electrons    = 16
  Nalpha       = 8
  Nbeta        = 8

  ==> Algorithm <==

  SCF Algorithm Type is PK.
  DIIS enabled.
  MOM disabled.
  Fractional occupation disabled.
  Guess Type is SAD.
  Energy threshold   = 1.00e-10
  Density threshold  = 1.00e-10
  Integral threshold = 1.00e-12

  ==> Primary Basis <==

  Basis Set: AUG-CC-PVDZ
    Blend: AUG-CC-PVDZ
    Number of shells: 23
    Number of basis functions: 55
    Number of Cartesian functions: 59
    Spherical Harmonics?: true
    Max angular momentum: 2

  ==> Integral Setup <==

  Using in-core PK algorithm.
   Calculation information:
      Number of atoms:                   3
      Number of AO shells:              23
      Number of primitives:             57
      Number of atomic orbitals:        59
      Number of basis functions:        55

      Integral cutoff                 1.00e-12
      Number of threads:                 4

  Performing in-core PK
  Using 2373140 doubles for integral storage.
  We computed 49959 shell quartets total.
  Whereas there are 38226 unique shell quartets.
    30.69 percent of shell quartets recomputed by reordering.

  ==> DiskJK: Disk-Based J/K Matrices <==

    J tasked:                  Yes
    K tasked:                  Yes
    wK tasked:                  No
    Memory [MiB]:             5722
    Schwarz Cutoff:          1E-12

    OpenMP threads:              4

  Minimum eigenvalue in the overlap matrix is 1.0471301004E-03.
  Reciprocal condition number of the overlap matrix is 1.9777881516E-04.
    Using symmetric orthogonalization.

  ==> Pre-Iterations <==

  SCF Guess: Superposition of Atomic Densities via on-the-fly atomic UHF (no occupation information).

   -------------------------
    Irrep   Nso     Nmo    
   -------------------------
     A'        39      39 
     A"        16      16 
   -------------------------
    Total      55      55
   -------------------------

  ==> Iterations <==

                        Total Energy        Delta E     RMS |[F,P]|

   @ROHF iter SAD:  -137.04534336953918   -1.37045e+02   0.00000e+00 
   @ROHF iter   1:  -137.73520043839702   -6.89857e-01   3.28427e-03 DIIS
   @ROHF iter   2:  -137.75291781452634   -1.77174e-02   1.24994e-03 DIIS
   @ROHF iter   3:  -137.75519638586272   -2.27857e-03   5.16697e-04 DIIS
   @ROHF iter   4:  -137.75567323109539   -4.76845e-04   1.05658e-04 DIIS
   @ROHF iter   5:  -137.75572971579197   -5.64847e-05   3.55659e-05 DIIS
   @ROHF iter   6:  -137.75573707199825   -7.35621e-06   1.03129e-05 DIIS
   @ROHF iter   7:  -137.75573758717314   -5.15175e-07   1.81166e-06 DIIS
   @ROHF iter   8:  -137.75573760148774   -1.43146e-08   3.86581e-07 DIIS
   @ROHF iter   9:  -137.75573760222230   -7.34559e-10   8.85071e-08 DIIS
   @ROHF iter  10:  -137.75573760225754   -3.52429e-11   1.67061e-08 DIIS
   @ROHF iter  11:  -137.75573760225876   -1.22213e-12   2.69992e-09 DIIS
   @ROHF iter  12:  -137.75573760225876    0.00000e+00   6.72179e-10 DIIS
   @ROHF iter  13:  -137.75573760225876    0.00000e+00   2.02227e-10 DIIS
   @ROHF iter  14:  -137.75573760225865    1.13687e-13   4.93681e-11 DIIS
  Energy and wave function converged.


  ==> Post-Iterations <==

    Orbital Energies [Eh]
    ---------------------

    Doubly Occupied:                                                      

       1Ap   -26.379116     2Ap   -11.376335     3Ap    -1.688177  
       4Ap    -0.926143     5Ap    -0.767176     1App   -0.719323  
       6Ap    -0.702252     7Ap    -0.378642  

    Singly Occupied:                                                      

    

    Virtual:                                                              

       8Ap     0.036443     2App    0.043305     9Ap     0.086853  
      10Ap     0.113332     3App    0.141862    11Ap     0.172173  
      12Ap     0.247393    13Ap     0.263600     4App    0.284346  
      14Ap     0.306543    15Ap     0.330535     5App    0.375537  
      16Ap     0.435383    17Ap     0.477401     6App    0.516830  
      18Ap     0.518787    19Ap     0.573271    20Ap     0.626411  
       7App    0.629508    21Ap     0.730719     8App    0.847605  
      22Ap     0.873941    23Ap     0.937442    24Ap     1.077777  
       9App    1.404554    25Ap     1.409526    26Ap     1.433924  
      10App    1.438507    11App    1.553782    27Ap     1.581198  
      28Ap     1.670977    12App    1.711682    29Ap     1.767446  
      30Ap     1.820366    13App    2.004578    31Ap     2.006769  
      14App    2.220678    32Ap     2.224687    33Ap     2.277420  
      34Ap     2.437289    35Ap     2.798015    36Ap     3.430260  
      15App    4.859081    37Ap     4.859400    16App    4.943189  
      38Ap     4.981493    39Ap     5.010461  

    Final Occupation by Irrep:
             Ap   App 
    DOCC [     7,    1 ]
    SOCC [     0,    0 ]

  @ROHF Final Energy:  -137.75573760225865

   => Energetics <=

    Nuclear Repulsion Energy =             26.8611722349524200
    One-Electron Energy =                -243.3594914347889357
    Two-Electron Energy =                  78.7425815975778676
    Total Energy =                       -137.7557376022586482

Computation Completed


Properties will be evaluated at   0.000000,   0.000000,   0.000000 [a0]

Properties computed using the SCF density matrix


 Multipole Moments:

 ------------------------------------------------------------------------------------
     Multipole            Electronic (a.u.)      Nuclear  (a.u.)        Total (a.u.)
 ------------------------------------------------------------------------------------

 L = 1.  Multiply by 2.5417464519 to convert [e a0] to [Debye]
 Dipole X            :         -0.0128100           -0.6927146           -0.7055245
 Dipole Y            :         -1.6491046            1.8883845            0.2392799
 Dipole Z            :          0.0000000            0.0000000            0.0000000
 Magnitude           :                                                    0.7449965

 ------------------------------------------------------------------------------------

*** tstop() called on node17 at Fri Aug 19 14:20:50 2022
Module time:
	user time   =       1.82 seconds =       0.03 minutes
	system time =       1.10 seconds =       0.02 minutes
	total time  =          1 seconds =       0.02 minutes
Total time:
	user time   =      21.93 seconds =       0.37 minutes
	system time =      24.64 seconds =       0.41 minutes
	total time  =         28 seconds =       0.47 minutes
 MINTS: Wrapper to libmints.
   by Justin Turney

   Calculation information:
      Number of threads:                 4
      Number of atoms:                   3
      Number of AO shells:              23
      Number of SO shells:              23
      Number of primitives:             57
      Number of atomic orbitals:        59
      Number of basis functions:        55

      Number of irreps:                  2
      Integral cutoff                 1.00e-12
      Number of functions per irrep: [  39   16 ]

 OEINTS: Overlap, kinetic, potential, dipole, and quadrupole integrals
         stored in file 35.

      Computing two-electron integrals...done
      Computed 584494 non-zero two-electron integrals.
        Stored in file 33.


*** tstart() called on node17
*** at Fri Aug 19 14:20:51 2022


	Wfn Parameters:
	--------------------
	Wavefunction         = CCSD
	Number of irreps     = 2
	Number of MOs        = 55
	Number of active MOs = 53
	AO-Basis             = NONE
	Semicanonical        = false
	Reference            = ROHF
	Print Level          = 1

	IRREP	# MOs	# FZDC	# DOCC	# SOCC	# VIRT	# FZVR
	-----	-----	------	------	------	------	------
	 Ap	   39	    2	    5	    0	    32	    0
	 App	   16	    0	    1	    0	    15	    0
	Transforming integrals...
	IWL integrals will be deleted.
	(OO|OO)...
	Presorting SO-basis two-electron integrals.
	Sorting File: SO Ints (nn|nn) nbuckets = 1
	Constructing frozen core operators
	Starting first half-transformation.
	Sorting half-transformed integrals.
	First half integral transformation complete.
	Starting second half-transformation.
	Two-electron integral transformation complete.
	(OO|OV)...
	Starting second half-transformation.
	Two-electron integral transformation complete.
	(OO|VV)...
	Starting second half-transformation.
	Two-electron integral transformation complete.
	(OV|OO)...
	Starting first half-transformation.
	Sorting half-transformed integrals.
	First half integral transformation complete.
	Starting second half-transformation.
	Two-electron integral transformation complete.
	(OV|OV)...
	Starting second half-transformation.
	Two-electron integral transformation complete.
	(OV|VV)...
	Starting second half-transformation.
	Two-electron integral transformation complete.
	(VV|OO)...
	Starting first half-transformation.
	Sorting half-transformed integrals.
	First half integral transformation complete.
	Starting second half-transformation.
	Two-electron integral transformation complete.
	(VV|OV)...
	Starting second half-transformation.
	Two-electron integral transformation complete.
	(VV|VV)...
	Starting second half-transformation.
	Two-electron integral transformation complete.
	Frozen core energy     =   -119.77085568471128

	Size of irrep 0 of <ab|cd> integrals:      1.560 (MW) /     12.480 (MB)
	Size of irrep 1 of <ab|cd> integrals:      0.922 (MW) /      7.373 (MB)
	Total:                                     2.482 (MW) /     19.853 (MB)

	Size of irrep 0 of <ia|bc> integrals:      0.219 (MW) /      1.749 (MB)
	Size of irrep 1 of <ia|bc> integrals:      0.103 (MW) /      0.822 (MB)
	Total:                                     0.321 (MW) /      2.570 (MB)

	Size of irrep 0 of tIjAb amplitudes:       0.032 (MW) /      0.260 (MB)
	Size of irrep 1 of tIjAb amplitudes:       0.010 (MW) /      0.077 (MB)
	Total:                                     0.042 (MW) /      0.337 (MB)

	Nuclear Rep. energy          =     26.86117223495242
	SCF energy                   =   -137.75573760225865
	One-electron energy          =    -79.32868173588517
	Two-electron (AA) energy     =      7.09232424385105
	Two-electron (BB) energy     =      7.09232424385105
	Two-electron (AB) energy     =     20.29797909568332
	Two-electron energy          =    -44.84605415249975
	Reference energy             =   -137.75573760225859

*** tstop() called on node17 at Fri Aug 19 14:20:51 2022
Module time:
	user time   =       0.27 seconds =       0.00 minutes
	system time =       0.15 seconds =       0.00 minutes
	total time  =          0 seconds =       0.00 minutes
Total time:
	user time   =      22.61 seconds =       0.38 minutes
	system time =      25.05 seconds =       0.42 minutes
	total time  =         29 seconds =       0.48 minutes
            **************************
            *                        *
            *        CCENERGY        *
            *                        *
            **************************

    Nuclear Rep. energy (wfn)     =   26.861172234952420
    SCF energy          (wfn)     = -137.755737602258648
    Reference energy    (file100) = -137.755737602258591

    Input parameters:
    -----------------
    Wave function   =     CCSD
    Reference wfn   =     ROHF
    Brueckner       =     No
    Memory (Mbytes) =     8000.0
    Maxiter         =     50
    R_Convergence   =     1.0e-07
    E_Convergence   =     1.0e-08
    Restart         =     Yes
    DIIS            =     Yes
    AO Basis        =     NONE
    ABCD            =     NEW
    Cache Level     =     2
    Cache Type      =     LOW
    Print Level     =     1
    Num. of threads =     4
    # Amps to Print =     10
    Print MP2 Amps? =     No
    Analyze T2 Amps =     No
    Print Pair Ener =     No
    Local CC        =     No
    SCS-MP2         =     False
    SCSN-MP2        =     False
    SCS-CCSD        =     False

                Solving CC Amplitude Equations
                ------------------------------
  Iter             Energy              RMS        T1Diag      D1Diag    New D1Diag    D2Diag
  ----     ---------------------    ---------   ----------  ----------  ----------   --------
     0        -0.318301839263545    0.000e+00    0.000000    0.000000    0.000000    0.000000
     1        -0.324541396577735    9.059e-02    0.014721    0.041476    0.041476    0.000000
     2        -0.335003297679571    3.286e-02    0.014339    0.040340    0.040340    0.000000
     3        -0.339240373929174    2.138e-02    0.018497    0.053211    0.053211    0.000000
     4        -0.339207537640920    7.775e-03    0.019725    0.057011    0.057011    0.000000
     5        -0.339236782500211    3.733e-03    0.020107    0.058231    0.058231    0.000000
     6        -0.339334882751828    1.653e-03    0.020090    0.058051    0.058051    0.000000
     7        -0.339339376440622    7.434e-04    0.020004    0.057670    0.057670    0.000000
     8        -0.339344062343546    3.152e-04    0.019956    0.057481    0.057481    0.000000
     9        -0.339350211723784    1.227e-04    0.019936    0.057401    0.057401    0.000000
    10        -0.339347821633908    4.559e-05    0.019929    0.057380    0.057380    0.000000
    11        -0.339348565584831    1.842e-05    0.019925    0.057371    0.057371    0.000000
    12        -0.339348784995599    6.449e-06    0.019925    0.057371    0.057371    0.000000
    13        -0.339348949516195    2.877e-06    0.019925    0.057371    0.057371    0.000000
    14        -0.339349030955483    1.184e-06    0.019925    0.057372    0.057372    0.000000
    15        -0.339349056002964    4.810e-07    0.019925    0.057372    0.057372    0.000000
    16        -0.339349059521937    2.432e-07    0.019925    0.057372    0.057372    0.000000
    17        -0.339349062510710    1.193e-07    0.019925    0.057372    0.057372    0.000000
    18        -0.339349063951933    6.669e-08    0.019925    0.057372    0.057372    0.000000

    Iterations converged.


    Largest TIA Amplitudes:
              5  32         0.0453808077
              5  33         0.0304600069
              4   5         0.0144397712
              4   6         0.0112373430
              5  34         0.0105848587
              2   5        -0.0099259344
              4   4         0.0096651700
              4   1         0.0088822614
              5  38         0.0082337374
              5  36         0.0081031028

    Largest Tia Amplitudes:
              5  32         0.0453808077
              5  33         0.0304600069
              4   5         0.0144397712
              4   6         0.0112373430
              5  34         0.0105848587
              2   5        -0.0099259344
              4   4         0.0096651700
              4   1         0.0088822614
              5  38         0.0082337374
              5  36         0.0081031028

    Largest TIJAB Amplitudes:
      5   3  32  11        -0.0097618582
      5   2  42  21        -0.0078610735
      5   3  42  22        -0.0077190388
      5   3  32   4        -0.0074693477
      5   3  32   9        -0.0074200510
      5   3  39  17         0.0073194445
      5   2  40  18        -0.0072310388
      5   2  39  17        -0.0071252483
      4   3  12   7         0.0069566228
      5   3  33  11        -0.0067739406

    Largest Tijab Amplitudes:
      5   3  32  11        -0.0097618582
      5   2  42  21        -0.0078610735
      5   3  42  22        -0.0077190388
      5   3  32   4        -0.0074693477
      5   3  32   9        -0.0074200510
      5   3  39  17         0.0073194445
      5   2  40  18        -0.0072310388
      5   2  39  17        -0.0071252483
      4   3  12   7         0.0069566228
      5   3  33  11        -0.0067739406

    Largest TIjAb Amplitudes:
      4   4  32  32        -0.0727704817
      4   4  32  33        -0.0547659871
      4   4  33  32        -0.0547659871
      4   4  33  33        -0.0411691138
      4   4   7   7        -0.0262162154
      5   5  32  32        -0.0261912649
      4   4  32  35        -0.0245124958
      4   4  35  32        -0.0245124958
      5   5  42  42        -0.0223304605
      4   4  33  35        -0.0187354714

    SCF energy       (wfn)                    = -137.755737602258648
    Reference energy (file100)                = -137.755737602258591

    Opposite-spin CCSD correlation energy     =   -0.267719820315977
    Same-spin CCSD correlation energy         =   -0.071629243741049
    Singles CCSD correlation energy           =    0.000000000105093
    CCSD correlation energy                   =   -0.339349063951933
      * CCSD total energy                     = -138.095086666210534


    Psi4 stopped on: Friday, 19 August 2022 02:21PM
    Psi4 wall time for execution: 0:00:11.38


    -----------------------------------------------------------------------
          Psi4: An Open-Source Ab Initio Electronic Structure Package
                               Psi4 1.6.1 release

                         Git: Rev {HEAD} 5b9f6e3 


    D. G. A. Smith, L. A. Burns, A. C. Simmonett, R. M. Parrish,
    M. C. Schieber, R. Galvelis, P. Kraus, H. Kruse, R. Di Remigio,
    A. Alenaizan, A. M. James, S. Lehtola, J. P. Misiewicz, M. Scheurer,
    R. A. Shaw, J. B. Schriber, Y. Xie, Z. L. Glick, D. A. Sirianni,
    J. S. O'Brien, J. M. Waldrop, A. Kumar, E. G. Hohenstein,
    B. P. Pritchard, B. R. Brooks, H. F. Schaefer III, A. Yu. Sokolov,
    K. Patkowski, A. E. DePrince III, U. Bozkaya, R. A. King,
    F. A. Evangelista, J. M. Turney, T. D. Crawford, C. D. Sherrill,
    J. Chem. Phys. 152(18) 184108 (2020). https://doi.org/10.1063/5.0006002

                            Additional Code Authors
    E. T. Seidl, C. L. Janssen, E. F. Valeev, M. L. Leininger,
    J. F. Gonthier, R. M. Richard, H. R. McAlexander, M. Saitow, X. Wang,
    P. Verma, M. H. Lechner, and A. Jiang

             Previous Authors, Complete List of Code Contributors,
                       and Citations for Specific Modules
    https://github.com/psi4/psi4/blob/master/codemeta.json
    https://github.com/psi4/psi4/graphs/contributors
    http://psicode.org/psi4manual/master/introduction.html#citing-psifour

    -----------------------------------------------------------------------


    Psi4 started on: Friday, 19 August 2022 02:20PM

    Process ID: 6357
    Host:       node17
    PSIDATADIR: /home/mdavis/anaconda3/envs/p4env/share/psi4
    Memory:     7.5 GiB
    Threads:    4
    
  ==> Input QCSchema <==

--------------------------------------------------------------------------
{'driver': 'energy',
 'extras': {'psiapi': True, 'wfn_qcvars_only': True},
 'id': None,
 'keywords': {'DERTYPE': 'NONE',
              'E_CONVERGENCE': 1e-08,
              'FREEZE_CORE': 'TRUE',
              'PARENT_SYMMETRY': 'Cs(Z)',
              'REFERENCE': 'ROHF',
              'ROOTS_PER_IRREP': [0, 1],
              'SCF__D_CONVERGENCE': 1e-10,
              'SCF__E_CONVERGENCE': 1e-10,
              'function_kwargs': {}},
 'model': {'basis': 'aug-cc-pvdz', 'method': 'ccsd'},
 'molecule': {'atom_labels': ['', '', ''],
              'atomic_numbers': [1, 6, 9],
              'fix_com': True,
              'fix_orientation': True,
              'fragment_charges': [0.0],
              'fragment_multiplicities': [1],
              'fragments': [[0, 1, 2]],
              'geometry': [-1.4422474354707318, 2.7502849663921167, 0.0, 0.1866134627279357, 1.4236750865008534, 0.0,
                           -0.04136287023005685, -1.0451355781236533, 0.0],
              'mass_numbers': [1, 12, 19],
              'masses': [1.00782503223, 12.0, 18.99840316273],
              'molecular_charge': 0.0,
              'molecular_multiplicity': 1,
              'name': 'CFH',
              'provenance': {'creator': 'QCElemental',
                             'routine': 'qcelemental.molparse.from_string',
                             'version': 'v0.25.0'},
              'real': [True, True, True],
              'schema_name': 'qcschema_molecule',
              'schema_version': 2,
              'symbols': ['H', 'C', 'F'],
              'validated': True},
 'protocols': {'stdout': True},
 'provenance': {'creator': 'QCElemental', 'routine': 'qcelemental.models.results', 'version': 'v0.25.0'},
 'schema_name': 'qcschema_input',
 'schema_version': 1}
--------------------------------------------------------------------------

Scratch directory: /scratch/mdavis/PSI4_2022-08-19_14:20:19.512615905/

*** tstart() called on node17
*** at Fri Aug 19 14:21:00 2022

   => Loading Basis Set <=

    Name: AUG-CC-PVDZ
    Role: ORBITAL
    Keyword: BASIS
    atoms 1 entry H          line    40 file /home/mdavis/anaconda3/envs/p4env/share/psi4/basis/aug-cc-pvdz.gbs 
    atoms 2 entry C          line   182 file /home/mdavis/anaconda3/envs/p4env/share/psi4/basis/aug-cc-pvdz.gbs 
    atoms 3 entry F          line   290 file /home/mdavis/anaconda3/envs/p4env/share/psi4/basis/aug-cc-pvdz.gbs 


         ---------------------------------------------------------
                                   SCF
               by Justin Turney, Rob Parrish, Andy Simmonett
                          and Daniel G. A. Smith
                             ROHF Reference
                        4 Threads,   7629 MiB Core
         ---------------------------------------------------------

  ==> Geometry <==

    Molecular point group: cs
    Full point group: Cs

    Geometry (in Bohr), charge = 0, multiplicity = 1:

       Center              X                  Y                   Z               Mass       
    ------------   -----------------  -----------------  -----------------  -----------------
         H           -1.442247435471     2.750284966392     0.000000000000     1.007825032230
         C            0.186613462728     1.423675086501     0.000000000000    12.000000000000
         F           -0.041362870230    -1.045135578124     0.000000000000    18.998403162730

  Running in cs symmetry.

  Rotational constants: A =     23.63784  B =      1.14236  C =      1.08970 [cm^-1]
  Rotational constants: A = 708644.62769  B =  34247.13421  C =  32668.34944 [MHz]
  Nuclear repulsion =   26.860944601017334

  Charge       = 0
  Multiplicity = 1
  Electrons    = 16
  Nalpha       = 8
  Nbeta        = 8

  ==> Algorithm <==

  SCF Algorithm Type is PK.
  DIIS enabled.
  MOM disabled.
  Fractional occupation disabled.
  Guess Type is SAD.
  Energy threshold   = 1.00e-10
  Density threshold  = 1.00e-10
  Integral threshold = 1.00e-12

  ==> Primary Basis <==

  Basis Set: AUG-CC-PVDZ
    Blend: AUG-CC-PVDZ
    Number of shells: 23
    Number of basis functions: 55
    Number of Cartesian functions: 59
    Spherical Harmonics?: true
    Max angular momentum: 2

  ==> Integral Setup <==

  Using in-core PK algorithm.
   Calculation information:
      Number of atoms:                   3
      Number of AO shells:              23
      Number of primitives:             57
      Number of atomic orbitals:        59
      Number of basis functions:        55

      Integral cutoff                 1.00e-12
      Number of threads:                 4

  Performing in-core PK
  Using 2373140 doubles for integral storage.
  We computed 49959 shell quartets total.
  Whereas there are 38226 unique shell quartets.
    30.69 percent of shell quartets recomputed by reordering.

  ==> DiskJK: Disk-Based J/K Matrices <==

    J tasked:                  Yes
    K tasked:                  Yes
    wK tasked:                  No
    Memory [MiB]:             5722
    Schwarz Cutoff:          1E-12

    OpenMP threads:              4

  Minimum eigenvalue in the overlap matrix is 1.0486026374E-03.
  Reciprocal condition number of the overlap matrix is 1.9803505246E-04.
    Using symmetric orthogonalization.

  ==> Pre-Iterations <==

  SCF Guess: Superposition of Atomic Densities via on-the-fly atomic UHF (no occupation information).

   -------------------------
    Irrep   Nso     Nmo    
   -------------------------
     A'        39      39 
     A"        16      16 
   -------------------------
    Total      55      55
   -------------------------

  ==> Iterations <==

                        Total Energy        Delta E     RMS |[F,P]|

   @ROHF iter SAD:  -137.04527445343950   -1.37045e+02   0.00000e+00 
   @ROHF iter   1:  -137.73556833707147   -6.90294e-01   3.28455e-03 DIIS
   @ROHF iter   2:  -137.75327877916160   -1.77104e-02   1.25126e-03 DIIS
   @ROHF iter   3:  -137.75555938817570   -2.28061e-03   5.16492e-04 DIIS
   @ROHF iter   4:  -137.75603545781240   -4.76070e-04   1.05453e-04 DIIS
   @ROHF iter   5:  -137.75609163353548   -5.61757e-05   3.54857e-05 DIIS
   @ROHF iter   6:  -137.75609894306137   -7.30953e-06   1.03018e-05 DIIS
   @ROHF iter   7:  -137.75609945628952   -5.13228e-07   1.80745e-06 DIIS
   @ROHF iter   8:  -137.75609947052757   -1.42381e-08   3.84092e-07 DIIS
   @ROHF iter   9:  -137.75609947125332   -7.25748e-10   8.74829e-08 DIIS
   @ROHF iter  10:  -137.75609947128788   -3.45608e-11   1.64524e-08 DIIS
   @ROHF iter  11:  -137.75609947128908   -1.19371e-12   2.54842e-09 DIIS
   @ROHF iter  12:  -137.75609947128908    0.00000e+00   5.67051e-10 DIIS
   @ROHF iter  13:  -137.75609947128922   -1.42109e-13   1.68013e-10 DIIS
   @ROHF iter  14:  -137.75609947128896    2.55795e-13   4.66004e-11 DIIS
  Energy and wave function converged.


  ==> Post-Iterations <==

    Orbital Energies [Eh]
    ---------------------

    Doubly Occupied:                                                      

       1Ap   -26.379066     2Ap   -11.376471     3Ap    -1.688187  
       4Ap    -0.926155     5Ap    -0.767107     1App   -0.719303  
       6Ap    -0.701916     7Ap    -0.378995  

    Singly Occupied:                                                      

    

    Virtual:                                                              

       8Ap     0.036460     2App    0.043311     9Ap     0.086885  
      10Ap     0.113323     3App    0.141858    11Ap     0.172184  
      12Ap     0.247540    13Ap     0.263546     4App    0.284382  
      14Ap     0.306540    15Ap     0.330259     5App    0.375366  
      16Ap     0.435670    17Ap     0.477533     6App    0.517207  
      18Ap     0.518690    19Ap     0.573568    20Ap     0.626406  
       7App    0.629124    21Ap     0.730206     8App    0.847636  
      22Ap     0.873965    23Ap     0.936700    24Ap     1.077571  
       9App    1.404638    25Ap     1.409489    26Ap     1.434039  
      10App    1.438439    11App    1.553434    27Ap     1.580806  
      28Ap     1.672062    12App    1.711536    29Ap     1.767460  
      30Ap     1.820800    13App    2.005496    31Ap     2.006696  
      14App    2.219443    32Ap     2.223223    33Ap     2.277340  
      34Ap     2.436696    35Ap     2.795377    36Ap     3.429896  
      15App    4.859020    37Ap     4.859407    16App    4.943202  
      38Ap     4.981493    39Ap     5.010277  

    Final Occupation by Irrep:
             Ap   App 
    DOCC [     7,    1 ]
    SOCC [     0,    0 ]

  @ROHF Final Energy:  -137.75609947128896

   => Energetics <=

    Nuclear Repulsion Energy =             26.8609446010173336
    One-Electron Energy =                -243.3596915749287177
    Two-Electron Energy =                  78.7426475026224182
    Total Energy =                       -137.7560994712889624

Computation Completed


Properties will be evaluated at   0.000000,   0.000000,   0.000000 [a0]

Properties computed using the SCF density matrix


 Multipole Moments:

 ------------------------------------------------------------------------------------
     Multipole            Electronic (a.u.)      Nuclear  (a.u.)        Total (a.u.)
 ------------------------------------------------------------------------------------

 L = 1.  Multiply by 2.5417464519 to convert [e a0] to [Debye]
 Dipole X            :         -0.0097799           -0.6948325           -0.7046124
 Dipole Y            :         -1.6478493            1.8861153            0.2382660
 Dipole Z            :          0.0000000            0.0000000            0.0000000
 Magnitude           :                                                    0.7438073

 ------------------------------------------------------------------------------------

*** tstop() called on node17 at Fri Aug 19 14:21:01 2022
Module time:
	user time   =       1.53 seconds =       0.03 minutes
	system time =       0.78 seconds =       0.01 minutes
	total time  =          1 seconds =       0.02 minutes
Total time:
	user time   =      31.81 seconds =       0.53 minutes
	system time =      35.86 seconds =       0.60 minutes
	total time  =         39 seconds =       0.65 minutes
 MINTS: Wrapper to libmints.
   by Justin Turney

   Calculation information:
      Number of threads:                 4
      Number of atoms:                   3
      Number of AO shells:              23
      Number of SO shells:              23
      Number of primitives:             57
      Number of atomic orbitals:        59
      Number of basis functions:        55

      Number of irreps:                  2
      Integral cutoff                 1.00e-12
      Number of functions per irrep: [  39   16 ]

 OEINTS: Overlap, kinetic, potential, dipole, and quadrupole integrals
         stored in file 35.

      Computing two-electron integrals...done
[...]
    One-Electron Energy =                -243.3181283627777702
    Two-Electron Energy =                  78.7235389379300159
    Total Energy =                       -137.7558809471509846

Computation Completed


Properties will be evaluated at   0.000000,   0.000000,   0.000000 [a0]

Properties computed using the SCF density matrix


 Multipole Moments:

 ------------------------------------------------------------------------------------
     Multipole            Electronic (a.u.)      Nuclear  (a.u.)        Total (a.u.)
 ------------------------------------------------------------------------------------

 L = 1.  Multiply by 2.5417464519 to convert [e a0] to [Debye]
 Dipole X            :         -0.0092839           -0.6948756           -0.7041595
 Dipole Y            :         -1.6480602            1.8889302            0.2408700
 Dipole Z            :          0.0000000            0.0000000            0.0000000
 Magnitude           :                                                    0.7442170

 ------------------------------------------------------------------------------------

*** tstop() called on node17 at Fri Aug 19 14:23:32 2022
Module time:
	user time   =       1.46 seconds =       0.02 minutes
	system time =       0.87 seconds =       0.01 minutes
	total time  =          1 seconds =       0.02 minutes
Total time:
	user time   =     154.42 seconds =       2.57 minutes
	system time =     182.46 seconds =       3.04 minutes
	total time  =        190 seconds =       3.17 minutes
 MINTS: Wrapper to libmints.
   by Justin Turney

   Calculation information:
      Number of threads:                 4
      Number of atoms:                   3
      Number of AO shells:              23
      Number of SO shells:              23
      Number of primitives:             57
      Number of atomic orbitals:        59
      Number of basis functions:        55

      Number of irreps:                  2
      Integral cutoff                 1.00e-12
      Number of functions per irrep: [  39   16 ]

 OEINTS: Overlap, kinetic, potential, dipole, and quadrupole integrals
         stored in file 35.

      Computing two-electron integrals...done
      Computed 584494 non-zero two-electron integrals.
        Stored in file 33.


*** tstart() called on node17
*** at Fri Aug 19 14:23:32 2022


	Wfn Parameters:
	--------------------
	Wavefunction         = CCSD
	Number of irreps     = 2
	Number of MOs        = 55
	Number of active MOs = 53
	AO-Basis             = NONE
	Semicanonical        = false
	Reference            = ROHF
	Print Level          = 1

	IRREP	# MOs	# FZDC	# DOCC	# SOCC	# VIRT	# FZVR
	-----	-----	------	------	------	------	------
	 Ap	   39	    2	    5	    0	    32	    0
	 App	   16	    0	    1	    0	    15	    0
	Transforming integrals...
	IWL integrals will be deleted.
	(OO|OO)...
	Presorting SO-basis two-electron integrals.
	Sorting File: SO Ints (nn|nn) nbuckets = 1
	Constructing frozen core operators
	Starting first half-transformation.
	Sorting half-transformed integrals.
	First half integral transformation complete.
	Starting second half-transformation.
	Two-electron integral transformation complete.
	(OO|OV)...
	Starting second half-transformation.
	Two-electron integral transformation complete.
	(OO|VV)...
	Starting second half-transformation.
	Two-electron integral transformation complete.
	(OV|OO)...
	Starting first half-transformation.
	Sorting half-transformed integrals.
	First half integral transformation complete.
	Starting second half-transformation.
	Two-electron integral transformation complete.
	(OV|OV)...
	Starting second half-transformation.
	Two-electron integral transformation complete.
	(OV|VV)...
	Starting second half-transformation.
	Two-electron integral transformation complete.
	(VV|OO)...
	Starting first half-transformation.
	Sorting half-transformed integrals.
	First half integral transformation complete.
	Starting second half-transformation.
	Two-electron integral transformation complete.
	(VV|OV)...
	Starting second half-transformation.
	Two-electron integral transformation complete.
	(VV|VV)...
	Starting second half-transformation.
	Two-electron integral transformation complete.
	Frozen core energy     =   -119.76112597631112

	Size of irrep 0 of <ab|cd> integrals:      1.560 (MW) /     12.480 (MB)
	Size of irrep 1 of <ab|cd> integrals:      0.922 (MW) /      7.373 (MB)
	Total:                                     2.482 (MW) /     19.853 (MB)

	Size of irrep 0 of <ia|bc> integrals:      0.219 (MW) /      1.749 (MB)
	Size of irrep 1 of <ia|bc> integrals:      0.103 (MW) /      0.822 (MB)
	Total:                                     0.321 (MW) /      2.570 (MB)

	Size of irrep 0 of tIjAb amplitudes:       0.032 (MW) /      0.260 (MB)
	Size of irrep 1 of tIjAb amplitudes:       0.010 (MW) /      0.077 (MB)
	Total:                                     0.042 (MW) /      0.337 (MB)

	Nuclear Rep. energy          =     26.83870847769677
	SCF energy                   =   -137.75588094715098
	One-electron energy          =    -79.30728099435350
	Two-electron (AA) energy     =      7.09040177302392
	Two-electron (BB) energy     =      7.09040177302392
	Two-electron (AB) energy     =     20.29301399976894
	Two-electron energy          =    -44.83346344853674
	Reference energy             =   -137.75588094715110

*** tstop() called on node17 at Fri Aug 19 14:23:33 2022
Module time:
	user time   =       0.25 seconds =       0.00 minutes
	system time =       0.14 seconds =       0.00 minutes
	total time  =          1 seconds =       0.02 minutes
Total time:
	user time   =     155.10 seconds =       2.58 minutes
	system time =     182.96 seconds =       3.05 minutes
	total time  =        191 seconds =       3.18 minutes
            **************************
            *                        *
            *        CCENERGY        *
            *                        *
            **************************

    Nuclear Rep. energy (wfn)     =   26.838708477696773
    SCF energy          (wfn)     = -137.755880947150985
    Reference energy    (file100) = -137.755880947151098

    Input parameters:
    -----------------
    Wave function   =     CCSD
    Reference wfn   =     ROHF
    Brueckner       =     No
    Memory (Mbytes) =     8000.0
    Maxiter         =     50
    R_Convergence   =     1.0e-07
    E_Convergence   =     1.0e-08
    Restart         =     Yes
    DIIS            =     Yes
    AO Basis        =     NONE
    ABCD            =     NEW
    Cache Level     =     2
    Cache Type      =     LOW
    Print Level     =     1
    Num. of threads =     4
    # Amps to Print =     10
    Print MP2 Amps? =     No
    Analyze T2 Amps =     No
    Print Pair Ener =     No
    Local CC        =     No
    SCS-MP2         =     False
    SCSN-MP2        =     False
    SCS-CCSD        =     False

                Solving CC Amplitude Equations
                ------------------------------
  Iter             Energy              RMS        T1Diag      D1Diag    New D1Diag    D2Diag
  ----     ---------------------    ---------   ----------  ----------  ----------   --------
     0        -0.318385169763180    0.000e+00    0.000000    0.000000    0.000000    0.000000
     1        -0.324614074626847    9.071e-02    0.014741    0.041530    0.041530    0.000000
     2        -0.335091324965935    3.291e-02    0.014354    0.040378    0.040378    0.000000
     3        -0.339337244945533    2.141e-02    0.018519    0.053269    0.053269    0.000000
     4        -0.339304693838943    7.769e-03    0.019749    0.057076    0.057076    0.000000
     5        -0.339333227026787    3.728e-03    0.020133    0.058304    0.058304    0.000000
     6        -0.339430957905320    1.648e-03    0.020117    0.058131    0.058131    0.000000
     7        -0.339435307927045    7.416e-04    0.020032    0.057753    0.057753    0.000000
     8        -0.339439943696685    3.150e-04    0.019984    0.057564    0.057564    0.000000
     9        -0.339446117420619    1.228e-04    0.019964    0.057484    0.057484    0.000000
    10        -0.339443719350517    4.560e-05    0.019957    0.057463    0.057463    0.000000
    11        -0.339444465015292    1.842e-05    0.019953    0.057455    0.057455    0.000000
    12        -0.339444684269610    6.441e-06    0.019953    0.057455    0.057455    0.000000
    13        -0.339444848874770    2.873e-06    0.019953    0.057455    0.057455    0.000000
    14        -0.339444930245119    1.182e-06    0.019953    0.057455    0.057455    0.000000
    15        -0.339444955293366    4.792e-07    0.019953    0.057455    0.057455    0.000000
    16        -0.339444958738556    2.419e-07    0.019953    0.057456    0.057456    0.000000
    17        -0.339444961676221    1.183e-07    0.019953    0.057456    0.057456    0.000000
    18        -0.339444963090881    6.605e-08    0.019953    0.057456    0.057456    0.000000

    Iterations converged.


    Largest TIA Amplitudes:
              5  32         0.0454862227
              5  33         0.0304561191
              4   5         0.0144976291
              4   6         0.0111999811
              5  34         0.0105967805
              2   5        -0.0099356914
              4   4         0.0097249783
              4   1         0.0088722054
              5  38         0.0082303548
              5  36         0.0081088915

    Largest Tia Amplitudes:
              5  32         0.0454862227
              5  33         0.0304561191
              4   5         0.0144976291
              4   6         0.0111999811
              5  34         0.0105967805
              2   5        -0.0099356914
              4   4         0.0097249783
              4   1         0.0088722054
              5  38         0.0082303548
              5  36         0.0081088915

    Largest TIJAB Amplitudes:
      5   3  32  11        -0.0097393152
      5   2  42  21        -0.0078719417
      5   3  42  22        -0.0077172411
      5   3  32   4        -0.0075114606
      5   3  32   9        -0.0074617432
      5   3  39  17         0.0073006667
      5   2  40  18        -0.0072273883
      5   2  39  17        -0.0071555736
      4   3  12   7         0.0069835152
      5   3  33  11        -0.0067479533

    Largest Tijab Amplitudes:
      5   3  32  11        -0.0097393152
      5   2  42  21        -0.0078719417
      5   3  42  22        -0.0077172411
      5   3  32   4        -0.0075114606
      5   3  32   9        -0.0074617432
      5   3  39  17         0.0073006667
      5   2  40  18        -0.0072273883
      5   2  39  17        -0.0071555736
      4   3  12   7         0.0069835152
      5   3  33  11        -0.0067479533

    Largest TIjAb Amplitudes:
      4   4  32  32        -0.0727580907
      4   4  32  33        -0.0546609424
      4   4  33  32        -0.0546609424
      4   4  33  33        -0.0410194675
      5   5  32  32        -0.0262177693
      4   4   7   7        -0.0262153960
      4   4  32  35        -0.0244682624
      4   4  35  32        -0.0244682624
      5   5  42  42        -0.0223622598
      4   4  33  35        -0.0186750401

    SCF energy       (wfn)                    = -137.755880947150985
    Reference energy (file100)                = -137.755880947151098

    Opposite-spin CCSD correlation energy     =   -0.267813828647236
    Same-spin CCSD correlation energy         =   -0.071631134546570
    Singles CCSD correlation energy           =    0.000000000102925
    CCSD correlation energy                   =   -0.339444963090881
      * CCSD total energy                     = -138.095325910241968


			**************************
			*                        *
			*         CCHBAR         *
			*                        *
			**************************


	**********************************************************
	*  CCEOM: An Equation of Motion Coupled Cluster Program  *
	**********************************************************

	Nuclear Rep. energy (wfn)     =   26.838708477696773
	SCF energy          (wfn)     = -137.755880947150985
	Reference energy    (file100) = -137.755880947151098
	CCSD energy         (file100) =   -0.339444963090881

	Input parameters:
	-----------------
	Reference wfn   =    ROHF
	Reference EOM wfn=    ROHF
	Memory (Mbytes) =  8000.0
	ABCD            =     NEW
	Cache Level     =    2
	Cache Type      =     LRU
	Num. of threads =     4
	Local CC        =     No


	CCEOM parameters:
	-----------------
	States sought per irrep     = Ap 0, App 1,
	Max. number of iterations   =    80
	Vectors stored per root     =    12
	Print HbarSS iterations?    =     0
	Excitation range for HBarSS =     2
	Eigenvalue tolerance        = 1.0e-08
	Eigenvalue toleranceSS      = 1.0e-06
	Residual vector tolerance   = 1.0e-06
	Residual vector toleranceSS = 1.0e-06
	Complex tolerance           = 1.0e-12
	Root for properties         =     1
	Sym of state for properties =    App
	Guess vectors taken from    = SINGLES
	Restart EOM CC3             = NO
	Collapse with last vector   = YES



Fae   dot Fae   total  403.6568437772
Fmi   dot Fmi   total   12.2987502477
Fme   dot Fme   total    0.0008535166
WMBIJ dot WMBIJ total    0.7832750721
Wmbij dot Wmbij total    0.7832750721
WMbIj dot WMbIj total    1.0918965393
WmBiJ dot WmBiJ total    1.0918965393
Symmetry of ground state: Ap
Symmetry of excited state: App
Symmetry of right eigenvector: App
Obtaining initial guess from singles-singles block of Hbar...Done.

Iter=1    L=1     Root    EOM Energy     Delta E   Res. Norm    Conv?
                     1   0.0605041560   6.05e-02    3.70e-01      N
Iter=2    L=2     Root    EOM Energy     Delta E   Res. Norm    Conv?
                     1   0.0051235604  -5.54e-02    8.00e-02      N
Iter=3    L=3     Root    EOM Energy     Delta E   Res. Norm    Conv?
                     1   0.0018438545  -3.28e-03    3.85e-02      N
Iter=4    L=4     Root    EOM Energy     Delta E   Res. Norm    Conv?
                     1   0.0010403500  -8.04e-04    1.49e-02      N
Iter=5    L=5     Root    EOM Energy     Delta E   Res. Norm    Conv?
                     1   0.0008652757  -1.75e-04    5.97e-03      N
Iter=6    L=6     Root    EOM Energy     Delta E   Res. Norm    Conv?
                     1   0.0008576121  -7.66e-06    2.06e-03      N
Iter=7    L=7     Root    EOM Energy     Delta E   Res. Norm    Conv?
                     1   0.0008504414  -7.17e-06    7.55e-04      N
Iter=8    L=8     Root    EOM Energy     Delta E   Res. Norm    Conv?
                     1   0.0008472666  -3.17e-06    2.83e-04      N
Iter=9    L=9     Root    EOM Energy     Delta E   Res. Norm    Conv?
                     1   0.0008468149  -4.52e-07    1.09e-04      N
Iter=10   L=10    Root    EOM Energy     Delta E   Res. Norm    Conv?
                     1   0.0008466722  -1.43e-07    3.92e-05      N
Iter=11   L=11    Root    EOM Energy     Delta E   Res. Norm    Conv?
                     1   0.0008465666  -1.06e-07    1.52e-05      N
Iter=12   L=12    Root    EOM Energy     Delta E   Res. Norm    Conv?
                     1   0.0008465452  -2.15e-08    5.17e-06      N
Iter=13   L=2     Root    EOM Energy     Delta E   Res. Norm    Conv?
                     1   0.0008465452  -1.31e-17    5.17e-06      N
Iter=14   L=3     Root    EOM Energy     Delta E   Res. Norm    Conv?
                     1   0.0008465424  -2.83e-09    1.77e-06      N
Iter=15   L=4     Root    EOM Energy     Delta E   Res. Norm    Conv?
                     1   0.0008465425   9.42e-11    6.95e-07      Y
Collapsing to only 1 vector(s).

Procedure converged for 1 root(s).
Energy written to CC_INFO:Etot -138.0944793678
States per irrep written to CC_INFO.
<R|R> =   1.0000000000000004
EOM CCSD R0 for root 0 =   0.00000000000

Final Energetic Summary for Converged Roots of Irrep App
                     Excitation Energy              Total Energy
                (eV)     (cm^-1)     (au)             (au)
EOM State 1      0.023      185.8   0.0008465425  -138.094479367790

Largest components of excited wave function #1:
 RIA (libdpd indices) : (cscf notation)
         4 >   0      :       7ap >   2app :    0.5690667409
         4 >   1      :       7ap >   3app :    0.3783161396
         4 >   6      :       7ap >   8app :    0.0832415333
         4 >   3      :       7ap >   5app :    0.0744412744
         4 >   4      :       7ap >   6app :    0.0296365191
 Ria (libdpd indices) : (cscf notation)
         4 >   0      :       7ap >   2app :   -0.5690671287
         4 >   1      :       7ap >   3app :   -0.3783163821
         4 >   6      :       7ap >   8app :   -0.0832415829
         4 >   3      :       7ap >   5app :   -0.0744412966
         4 >   4      :       7ap >   6app :   -0.0296365580
 RIjAb (libdpd indices)     : (cscf notation)
        4   4 >   2   0     :    7ap    7ap >   10ap   2app :   -0.0207525494
        4   4 >   0   2     :    7ap    7ap >   2app   10ap :    0.0207525437
        4   4 >   7   0     :    7ap    7ap >   15ap   2app :    0.0199259246
        4   4 >   0   7     :    7ap    7ap >   2app   15ap :   -0.0199259141
        4   4 >   3   0     :    7ap    7ap >   11ap   2app :    0.0135963935
 RIJAB (libdpd indices)     : (cscf notation)
        3   2 >   0  11     :    6ap    5ap >   2app   19ap :   -0.0079391008
        4   2 >   0   7     :    7ap    5ap >   2app   15ap :   -0.0076975476
        4   1 >   0   9     :    7ap    4ap >   2app   17ap :   -0.0066601979
        4   1 >   0  19     :    7ap    4ap >   2app   27ap :   -0.0064532172
        3   2 >   0   7     :    6ap    5ap >   2app   15ap :    0.0063845674
 Rijab (libdpd indices)     : (cscf notation)
        3   2 >   0  11     :    6ap    5ap >   2app   19ap :    0.0079391078
        4   2 >   0   7     :    7ap    5ap >   2app   15ap :    0.0076975538
        4   1 >   0   9     :    7ap    4ap >   2app   17ap :    0.0066602023
        4   1 >   0  19     :    7ap    4ap >   2app   27ap :    0.0064532217
        3   2 >   0   7     :    6ap    5ap >   2app   15ap :   -0.0063845730

	Putting into environment energy for root of R irrep 2 and root 1.
	Putting into environment CURRENT ENERGY:             -138.0944793678

	Total # of sigma evaluations: 14

    Psi4 stopped on: Friday, 19 August 2022 02:23PM
    Psi4 wall time for execution: 0:00:16.43


  //>>>>>>>>>>>>>>>>>>>>>>>>>>>>>>>>>>>//
  //      FiniteDifference Results     //
  //<<<<<<<<<<<<<<<<<<<<<<<<<<<<<<<<<<<//

  Computing gradient from energies.
    Using 3-point formula.
    Energy without displacement: -138.0944338159
    Check energies below for precision!
    Forces are for mass-weighted, symmetry-adapted cartesians [a0].

     Coord      Energy(-1)        Energy(+1)            Force
        0   -138.0944068468   -138.0944546342     -0.0047787488
        1   -138.0944729893   -138.0943910125      0.0081976820
        2   -138.0943865004   -138.0944793678     -0.0092867409
         -------------------------------------------------------------
 
Working directory   = /home/mdavis/f12eom_optimizer/tests/slurm
Scratch directory   = /scratch/mdavis/molpro_step_2022-08-19_14_23_47
Input  file         = molpro_step.inp
Output file         = molpro_step.out
MolPro executable   = /home/qc/molpro_2020.1/bin/molpro
 
Running MolPro on local host (node17)
    with 1 processes
    and  4 threads per process
 
/home/mdavis/f12eom_optimizer/tests/slurm/opt_log.out
hello world
['STARTGEOM\n', '  3\n', '\n', '  H      0.000000000    1.442306288   -2.754574215\n', '  C      0.000000000   -0.186314094   -1.423042607\n', '  F      0.000000000    0.041269805    1.045804233\n', 'ENDGEOM\n', '\n', '\n', 'maxiter = 50\n', 'charge = 0\n', 'spin = 0\n', 'memory = 8\n', 'nproc = 4\n', 'roots = [0, 1]\n', 'theory = dz\n', 'units = bohr\n']
iteration: 0
Here is the gradient
[-0.0412086020029312 -0.0202814772616111  0.
  0.0746144249300166 -0.0035669715078713  0.
 -0.0334058229270854  0.0238484487694824  0.                ]
