
Host: node17

Timers On : Tue Aug 16 12:33:45 2022
Timers Off: Tue Aug 16 12:33:49 2022

Wall Time:        3.95 seconds


-----------------------------------------------------------

***********************************************************

Host: node17

Timers On : Tue Aug 16 12:38:33 2022
Timers Off: Tue Aug 16 12:38:34 2022

Wall Time:        1.13 seconds


-----------------------------------------------------------

***********************************************************

Host: node17

Timers On : Tue Aug 16 12:42:46 2022
Timers Off: Tue Aug 16 12:42:49 2022

Wall Time:        2.43 seconds

DFH: initialize()           :      0.050u      0.017s      0.192w      1 calls
DFH: sparsity prep          :      0.017u      0.000s      0.036w      1 calls
DFH: AO Construction        :      0.017u      0.000s      0.004w      1 calls
DFH: AO-Met. Contraction    :      0.000u      0.000s      0.001w      1 calls
HF: Form H                  :      0.000u      0.000s      0.128w      1 calls
HF: Form S/X                :      0.000u      0.000s      0.000w      1 calls
HF: Guess                   :      0.083u      0.000s      0.061w      1 calls
SAD Guess                   :      0.083u      0.000s      0.059w      1 calls
HF: Form G                  :      0.017u      0.000s      0.002w      8 calls
JK: D                       :      0.000u      0.000s      0.000w      8 calls
JK: USO2AO                  :      0.000u      0.000s      0.000w      8 calls
JK: JK                      :      0.017u      0.000s      0.002w      8 calls
DFH: compute_JK()           :      0.017u      0.000s      0.002w      8 calls
DFH: Grabbing AOs           :      0.000u      0.000s      0.000w      8 calls
DFH: compute_J              :      0.000u      0.000s      0.000w      8 calls
DFH: compute_K              :      0.017u      0.000s      0.001w      8 calls
JK: AO2USO                  :      0.000u      0.000s      0.000w      8 calls
HF: Form F                  :      0.000u      0.000s      0.000w      8 calls
HF: DIIS                    :      0.000u      0.000s      0.001w      8 calls
DIISManager::add_entry      :      0.000u      0.000s      0.001w      7 calls
DIISManager::extrapolate    :      0.000u      0.000s      0.000w      6 calls
bMatrix setup               :      0.000u      0.000s      0.000w      6 calls
bMatrix pseudoinverse       :      0.000u      0.000s      0.000w      6 calls
New vector                  :      0.000u      0.000s      0.000w      6 calls
HF: Form C                  :      0.000u      0.000s      0.001w      8 calls
HF: Form D                  :      0.000u      0.000s      0.000w      8 calls

-----------------------------------------------------------
DFH: initialize()           :      0.050u      0.017s      0.192w      1 calls
| DFH: sparsity prep        :      0.017u      0.000s      0.036w      1 calls
| DFH: AO Construction      :      0.017u      0.000s      0.004w      1 calls
| DFH: AO-Met. Contraction  :      0.000u      0.000s      0.001w      1 calls
HF: Form H                  :      0.000u      0.000s      0.128w      1 calls
HF: Form S/X                :      0.000u      0.000s      0.000w      1 calls
HF: Guess                   :      0.083u      0.000s      0.061w      1 calls
| SAD Guess                 :      0.083u      0.000s      0.059w      1 calls
HF: Form G                  :      0.017u      0.000s      0.002w      8 calls
| JK: D                     :      0.000u      0.000s      0.000w      8 calls
| JK: USO2AO                :      0.000u      0.000s      0.000w      8 calls
| JK: JK                    :      0.017u      0.000s      0.002w      8 calls
| | DFH: compute_JK()       :      0.017u      0.000s      0.002w      8 calls
| | | DFH: Grabbing AOs     :      0.000u      0.000s      0.000w      8 calls
| | | DFH: compute_J        :      0.000u      0.000s      0.000w      8 calls
| | | DFH: compute_K        :      0.017u      0.000s      0.001w      8 calls
| JK: AO2USO                :      0.000u      0.000s      0.000w      8 calls
HF: Form F                  :      0.000u      0.000s      0.000w      8 calls
HF: DIIS                    :      0.000u      0.000s      0.001w      8 calls
| DIISManager::add_entry    :      0.000u      0.000s      0.001w      7 calls
| DIISManager::extrapolate  :      0.000u      0.000s      0.000w      6 calls
| | bMatrix setup           :      0.000u      0.000s      0.000w      6 calls
| | bMatrix pseudoinverse   :      0.000u      0.000s      0.000w      6 calls
| | New vector              :      0.000u      0.000s      0.000w      6 calls
HF: Form C                  :      0.000u      0.000s      0.001w      8 calls
HF: Form D                  :      0.000u      0.000s      0.000w      8 calls

***********************************************************

Host: node17

Timers On : Tue Aug 16 12:44:23 2022
Timers Off: Tue Aug 16 12:44:25 2022

Wall Time:        1.83 seconds

DFH: initialize()           :      0.067u      0.017s      0.038w      1 calls
DFH: sparsity prep          :      0.017u      0.000s      0.010w      1 calls
DFH: AO Construction        :      0.000u      0.000s      0.004w      1 calls
DFH: AO-Met. Contraction    :      0.017u      0.000s      0.001w      1 calls
HF: Form H                  :      0.000u      0.000s      0.005w      1 calls
HF: Form S/X                :      0.000u      0.000s      0.000w      1 calls
HF: Guess                   :      0.100u      0.000s      0.061w      1 calls
SAD Guess                   :      0.100u      0.000s      0.059w      1 calls
HF: Form G                  :      0.000u      0.000s      0.003w     11 calls
JK: D                       :      0.000u      0.000s      0.000w     11 calls
JK: USO2AO                  :      0.000u      0.000s      0.000w     11 calls
JK: JK                      :      0.000u      0.000s      0.002w     11 calls
DFH: compute_JK()           :      0.000u      0.000s      0.002w     11 calls
DFH: Grabbing AOs           :      0.000u      0.000s      0.000w     11 calls
DFH: compute_J              :      0.000u      0.000s      0.001w     11 calls
DFH: compute_K              :      0.000u      0.000s      0.001w     11 calls
JK: AO2USO                  :      0.000u      0.000s      0.000w     11 calls
HF: Form F                  :      0.000u      0.000s      0.000w     11 calls
HF: DIIS                    :      0.000u      0.000s      0.002w     11 calls
DIISManager::add_entry      :      0.000u      0.000s      0.001w     10 calls
DIISManager::extrapolate    :      0.000u      0.000s      0.001w      9 calls
bMatrix setup               :      0.000u      0.000s      0.000w      9 calls
bMatrix pseudoinverse       :      0.000u      0.000s      0.000w      9 calls
New vector                  :      0.000u      0.000s      0.000w      9 calls
HF: Form C                  :      0.000u      0.000s      0.001w     11 calls
HF: Form D                  :      0.000u      0.000s      0.000w     11 calls
Grad: V T Perturb           :      0.017u      0.017s      0.019w      1 calls
Grad: S                     :      0.017u      0.000s      0.000w      1 calls
Grad: JK                    :      0.117u      0.000s      0.328w      1 calls
JKGrad: Amn                 :      0.017u      0.000s      0.011w      1 calls
JKGrad: Awmn                :      0.000u      0.000s      0.000w      1 calls
JKGrad: AB                  :      0.017u      0.000s      0.013w      1 calls
JKGrad: UV                  :      0.000u      0.000s      0.000w      1 calls
JKGrad: ABx                 :      0.017u      0.000s      0.264w      1 calls
JKGrad: Amnx                :      0.050u      0.000s      0.026w      1 calls
Grad: XC                    :      0.000u      0.000s      0.000w      1 calls

-----------------------------------------------------------
DFH: initialize()           :      0.067u      0.017s      0.038w      1 calls
| DFH: sparsity prep        :      0.017u      0.000s      0.010w      1 calls
| DFH: AO Construction      :      0.000u      0.000s      0.004w      1 calls
| DFH: AO-Met. Contraction  :      0.017u      0.000s      0.001w      1 calls
HF: Form H                  :      0.000u      0.000s      0.005w      1 calls
HF: Form S/X                :      0.000u      0.000s      0.000w      1 calls
HF: Guess                   :      0.100u      0.000s      0.061w      1 calls
| SAD Guess                 :      0.100u      0.000s      0.059w      1 calls
HF: Form G                  :      0.000u      0.000s      0.003w     11 calls
| JK: D                     :      0.000u      0.000s      0.000w     11 calls
| JK: USO2AO                :      0.000u      0.000s      0.000w     11 calls
| JK: JK                    :      0.000u      0.000s      0.002w     11 calls
| | DFH: compute_JK()       :      0.000u      0.000s      0.002w     11 calls
| | | DFH: Grabbing AOs     :      0.000u      0.000s      0.000w     11 calls
| | | DFH: compute_J        :      0.000u      0.000s      0.001w     11 calls
| | | DFH: compute_K        :      0.000u      0.000s      0.001w     11 calls
| JK: AO2USO                :      0.000u      0.000s      0.000w     11 calls
HF: Form F                  :      0.000u      0.000s      0.000w     11 calls
HF: DIIS                    :      0.000u      0.000s      0.002w     11 calls
| DIISManager::add_entry    :      0.000u      0.000s      0.001w     10 calls
| DIISManager::extrapolate  :      0.000u      0.000s      0.001w      9 calls
| | bMatrix setup           :      0.000u      0.000s      0.000w      9 calls
| | bMatrix pseudoinverse   :      0.000u      0.000s      0.000w      9 calls
| | New vector              :      0.000u      0.000s      0.000w      9 calls
HF: Form C                  :      0.000u      0.000s      0.001w     11 calls
HF: Form D                  :      0.000u      0.000s      0.000w     11 calls
Grad: V T Perturb           :      0.017u      0.017s      0.019w      1 calls
Grad: S                     :      0.017u      0.000s      0.000w      1 calls
Grad: JK                    :      0.117u      0.000s      0.328w      1 calls
| JKGrad: Amn               :      0.017u      0.000s      0.011w      1 calls
| JKGrad: Awmn              :      0.000u      0.000s      0.000w      1 calls
| JKGrad: AB                :      0.017u      0.000s      0.013w      1 calls
| JKGrad: UV                :      0.000u      0.000s      0.000w      1 calls
| JKGrad: ABx               :      0.017u      0.000s      0.264w      1 calls
| JKGrad: Amnx              :      0.050u      0.000s      0.026w      1 calls
Grad: XC                    :      0.000u      0.000s      0.000w      1 calls

***********************************************************

Host: node17

Timers On : Tue Aug 16 12:46:58 2022
Timers Off: Tue Aug 16 12:47:00 2022

Wall Time:        2.00 seconds

DFH: initialize()           :      0.050u      0.017s      0.038w      1 calls
DFH: sparsity prep          :      0.017u      0.000s      0.010w      1 calls
DFH: AO Construction        :      0.000u      0.000s      0.004w      1 calls
DFH: AO-Met. Contraction    :      0.000u      0.000s      0.001w      1 calls
HF: Form H                  :      0.000u      0.000s      0.005w      1 calls
HF: Form S/X                :      0.000u      0.000s      0.000w      1 calls
HF: Guess                   :      0.117u      0.000s      0.061w      1 calls
SAD Guess                   :      0.100u      0.000s      0.059w      1 calls
HF: Form G                  :      0.000u      0.000s      0.003w     11 calls
JK: D                       :      0.000u      0.000s      0.000w     11 calls
JK: USO2AO                  :      0.000u      0.000s      0.000w     11 calls
JK: JK                      :      0.000u      0.000s      0.002w     11 calls
DFH: compute_JK()           :      0.000u      0.000s      0.002w     11 calls
DFH: Grabbing AOs           :      0.000u      0.000s      0.000w     11 calls
DFH: compute_J              :      0.000u      0.000s      0.001w     11 calls
DFH: compute_K              :      0.000u      0.000s      0.001w     11 calls
JK: AO2USO                  :      0.000u      0.000s      0.000w     11 calls
HF: Form F                  :      0.000u      0.000s      0.000w     11 calls
HF: DIIS                    :      0.000u      0.000s      0.002w     11 calls
DIISManager::add_entry      :      0.000u      0.000s      0.001w     10 calls
DIISManager::extrapolate    :      0.000u      0.000s      0.001w      9 calls
bMatrix setup               :      0.000u      0.000s      0.000w      9 calls
bMatrix pseudoinverse       :      0.000u      0.000s      0.000w      9 calls
New vector                  :      0.000u      0.000s      0.000w      9 calls
HF: Form C                  :      0.000u      0.000s      0.001w     11 calls
HF: Form D                  :      0.000u      0.000s      0.000w     11 calls
Grad: V T Perturb           :      0.017u      0.017s      0.019w      1 calls
Grad: S                     :      0.000u      0.000s      0.000w      1 calls
Grad: JK                    :      0.117u      0.000s      0.074w      1 calls
JKGrad: Amn                 :      0.017u      0.000s      0.012w      1 calls
JKGrad: Awmn                :      0.017u      0.000s      0.000w      1 calls
JKGrad: AB                  :      0.017u      0.000s      0.013w      1 calls
JKGrad: UV                  :      0.000u      0.000s      0.000w      1 calls
JKGrad: ABx                 :      0.017u      0.000s      0.010w      1 calls
JKGrad: Amnx                :      0.033u      0.000s      0.026w      1 calls
Grad: XC                    :      0.000u      0.000s      0.000w      1 calls

-----------------------------------------------------------
DFH: initialize()           :      0.050u      0.017s      0.038w      1 calls
| DFH: sparsity prep        :      0.017u      0.000s      0.010w      1 calls
| DFH: AO Construction      :      0.000u      0.000s      0.004w      1 calls
| DFH: AO-Met. Contraction  :      0.000u      0.000s      0.001w      1 calls
HF: Form H                  :      0.000u      0.000s      0.005w      1 calls
HF: Form S/X                :      0.000u      0.000s      0.000w      1 calls
HF: Guess                   :      0.117u      0.000s      0.061w      1 calls
| SAD Guess                 :      0.100u      0.000s      0.059w      1 calls
HF: Form G                  :      0.000u      0.000s      0.003w     11 calls
| JK: D                     :      0.000u      0.000s      0.000w     11 calls
| JK: USO2AO                :      0.000u      0.000s      0.000w     11 calls
| JK: JK                    :      0.000u      0.000s      0.002w     11 calls
| | DFH: compute_JK()       :      0.000u      0.000s      0.002w     11 calls
| | | DFH: Grabbing AOs     :      0.000u      0.000s      0.000w     11 calls
| | | DFH: compute_J        :      0.000u      0.000s      0.001w     11 calls
| | | DFH: compute_K        :      0.000u      0.000s      0.001w     11 calls
| JK: AO2USO                :      0.000u      0.000s      0.000w     11 calls
HF: Form F                  :      0.000u      0.000s      0.000w     11 calls
HF: DIIS                    :      0.000u      0.000s      0.002w     11 calls
| DIISManager::add_entry    :      0.000u      0.000s      0.001w     10 calls
| DIISManager::extrapolate  :      0.000u      0.000s      0.001w      9 calls
| | bMatrix setup           :      0.000u      0.000s      0.000w      9 calls
| | bMatrix pseudoinverse   :      0.000u      0.000s      0.000w      9 calls
| | New vector              :      0.000u      0.000s      0.000w      9 calls
HF: Form C                  :      0.000u      0.000s      0.001w     11 calls
HF: Form D                  :      0.000u      0.000s      0.000w     11 calls
Grad: V T Perturb           :      0.017u      0.017s      0.019w      1 calls
Grad: S                     :      0.000u      0.000s      0.000w      1 calls
Grad: JK                    :      0.117u      0.000s      0.074w      1 calls
| JKGrad: Amn               :      0.017u      0.000s      0.012w      1 calls
| JKGrad: Awmn              :      0.017u      0.000s      0.000w      1 calls
| JKGrad: AB                :      0.017u      0.000s      0.013w      1 calls
| JKGrad: UV                :      0.000u      0.000s      0.000w      1 calls
| JKGrad: ABx               :      0.017u      0.000s      0.010w      1 calls
| JKGrad: Amnx              :      0.033u      0.000s      0.026w      1 calls
Grad: XC                    :      0.000u      0.000s      0.000w      1 calls

***********************************************************

Host: node17

Timers On : Tue Aug 16 12:49:16 2022
Timers Off: Tue Aug 16 12:49:18 2022

Wall Time:        2.09 seconds

DFH: initialize()           :      0.050u      0.000s      0.038w      1 calls
DFH: sparsity prep          :      0.017u      0.000s      0.010w      1 calls
DFH: AO Construction        :      0.017u      0.000s      0.004w      1 calls
DFH: AO-Met. Contraction    :      0.000u      0.000s      0.001w      1 calls
HF: Form H                  :      0.000u      0.000s      0.005w      1 calls
HF: Form S/X                :      0.000u      0.000s      0.000w      1 calls
HF: Guess                   :      0.100u      0.000s      0.061w      1 calls
SAD Guess                   :      0.100u      0.000s      0.059w      1 calls
HF: Form G                  :      0.000u      0.000s      0.003w     11 calls
JK: D                       :      0.000u      0.000s      0.000w     11 calls
JK: USO2AO                  :      0.000u      0.000s      0.000w     11 calls
JK: JK                      :      0.000u      0.000s      0.002w     11 calls
DFH: compute_JK()           :      0.000u      0.000s      0.002w     11 calls
DFH: Grabbing AOs           :      0.000u      0.000s      0.000w     11 calls
DFH: compute_J              :      0.000u      0.000s      0.001w     11 calls
DFH: compute_K              :      0.000u      0.000s      0.001w     11 calls
JK: AO2USO                  :      0.000u      0.000s      0.000w     11 calls
HF: Form F                  :      0.000u      0.000s      0.000w     11 calls
HF: DIIS                    :      0.000u      0.000s      0.002w     11 calls
DIISManager::add_entry      :      0.000u      0.000s      0.001w     10 calls
DIISManager::extrapolate    :      0.000u      0.000s      0.001w      9 calls
bMatrix setup               :      0.000u      0.000s      0.000w      9 calls
bMatrix pseudoinverse       :      0.000u      0.000s      0.000w      9 calls
New vector                  :      0.000u      0.000s      0.000w      9 calls
HF: Form C                  :      0.017u      0.000s      0.001w     11 calls
HF: Form D                  :      0.000u      0.000s      0.000w     11 calls
Grad: V T Perturb           :      0.033u      0.000s      0.019w      1 calls
Grad: S                     :      0.000u      0.000s      0.000w      1 calls
Grad: JK                    :      0.100u      0.017s      0.074w      1 calls
JKGrad: Amn                 :      0.017u      0.000s      0.011w      1 calls
JKGrad: Awmn                :      0.000u      0.000s      0.000w      1 calls
JKGrad: AB                  :      0.017u      0.000s      0.013w      1 calls
JKGrad: UV                  :      0.000u      0.000s      0.000w      1 calls
JKGrad: ABx                 :      0.017u      0.017s      0.010w      1 calls
JKGrad: Amnx                :      0.033u      0.000s      0.026w      1 calls
Grad: XC                    :      0.000u      0.000s      0.000w      1 calls

-----------------------------------------------------------
DFH: initialize()           :      0.050u      0.000s      0.038w      1 calls
| DFH: sparsity prep        :      0.017u      0.000s      0.010w      1 calls
| DFH: AO Construction      :      0.017u      0.000s      0.004w      1 calls
| DFH: AO-Met. Contraction  :      0.000u      0.000s      0.001w      1 calls
HF: Form H                  :      0.000u      0.000s      0.005w      1 calls
HF: Form S/X                :      0.000u      0.000s      0.000w      1 calls
HF: Guess                   :      0.100u      0.000s      0.061w      1 calls
| SAD Guess                 :      0.100u      0.000s      0.059w      1 calls
HF: Form G                  :      0.000u      0.000s      0.003w     11 calls
| JK: D                     :      0.000u      0.000s      0.000w     11 calls
| JK: USO2AO                :      0.000u      0.000s      0.000w     11 calls
| JK: JK                    :      0.000u      0.000s      0.002w     11 calls
| | DFH: compute_JK()       :      0.000u      0.000s      0.002w     11 calls
| | | DFH: Grabbing AOs     :      0.000u      0.000s      0.000w     11 calls
| | | DFH: compute_J        :      0.000u      0.000s      0.001w     11 calls
| | | DFH: compute_K        :      0.000u      0.000s      0.001w     11 calls
| JK: AO2USO                :      0.000u      0.000s      0.000w     11 calls
HF: Form F                  :      0.000u      0.000s      0.000w     11 calls
HF: DIIS                    :      0.000u      0.000s      0.002w     11 calls
| DIISManager::add_entry    :      0.000u      0.000s      0.001w     10 calls
| DIISManager::extrapolate  :      0.000u      0.000s      0.001w      9 calls
| | bMatrix setup           :      0.000u      0.000s      0.000w      9 calls
| | bMatrix pseudoinverse   :      0.000u      0.000s      0.000w      9 calls
| | New vector              :      0.000u      0.000s      0.000w      9 calls
HF: Form C                  :      0.017u      0.000s      0.001w     11 calls
HF: Form D                  :      0.000u      0.000s      0.000w     11 calls
Grad: V T Perturb           :      0.033u      0.000s      0.019w      1 calls
Grad: S                     :      0.000u      0.000s      0.000w      1 calls
Grad: JK                    :      0.100u      0.017s      0.074w      1 calls
| JKGrad: Amn               :      0.017u      0.000s      0.011w      1 calls
| JKGrad: Awmn              :      0.000u      0.000s      0.000w      1 calls
| JKGrad: AB                :      0.017u      0.000s      0.013w      1 calls
| JKGrad: UV                :      0.000u      0.000s      0.000w      1 calls
| JKGrad: ABx               :      0.017u      0.017s      0.010w      1 calls
| JKGrad: Amnx              :      0.033u      0.000s      0.026w      1 calls
Grad: XC                    :      0.000u      0.000s      0.000w      1 calls

***********************************************************

Host: node17

Timers On : Tue Aug 16 12:52:58 2022
Timers Off: Tue Aug 16 12:53:00 2022

Wall Time:        2.09 seconds

DFH: initialize()           :      0.050u      0.017s      0.038w      1 calls
DFH: sparsity prep          :      0.017u      0.000s      0.010w      1 calls
DFH: AO Construction        :      0.017u      0.000s      0.004w      1 calls
DFH: AO-Met. Contraction    :      0.000u      0.000s      0.001w      1 calls
HF: Form H                  :      0.000u      0.000s      0.005w      1 calls
HF: Form S/X                :      0.000u      0.000s      0.000w      1 calls
HF: Guess                   :      0.100u      0.000s      0.061w      1 calls
SAD Guess                   :      0.100u      0.000s      0.058w      1 calls
HF: Form G                  :      0.000u      0.017s      0.003w     11 calls
JK: D                       :      0.000u      0.000s      0.000w     11 calls
JK: USO2AO                  :      0.000u      0.000s      0.000w     11 calls
JK: JK                      :      0.000u      0.017s      0.002w     11 calls
DFH: compute_JK()           :      0.000u      0.017s      0.002w     11 calls
DFH: Grabbing AOs           :      0.000u      0.000s      0.000w     11 calls
DFH: compute_J              :      0.000u      0.017s      0.001w     11 calls
DFH: compute_K              :      0.000u      0.000s      0.001w     11 calls
JK: AO2USO                  :      0.000u      0.000s      0.000w     11 calls
HF: Form F                  :      0.000u      0.000s      0.000w     11 calls
HF: DIIS                    :      0.000u      0.000s      0.002w     11 calls
DIISManager::add_entry      :      0.000u      0.000s      0.001w     10 calls
DIISManager::extrapolate    :      0.000u      0.000s      0.001w      9 calls
bMatrix setup               :      0.000u      0.000s      0.000w      9 calls
bMatrix pseudoinverse       :      0.000u      0.000s      0.000w      9 calls
New vector                  :      0.000u      0.000s      0.000w      9 calls
HF: Form C                  :      0.000u      0.000s      0.001w     11 calls
HF: Form D                  :      0.000u      0.000s      0.000w     11 calls
Grad: V T Perturb           :      0.017u      0.017s      0.019w      1 calls
Grad: S                     :      0.000u      0.000s      0.000w      1 calls
Grad: JK                    :      0.117u      0.000s      0.076w      1 calls
JKGrad: Amn                 :      0.017u      0.000s      0.012w      1 calls
JKGrad: Awmn                :      0.000u      0.000s      0.000w      1 calls
JKGrad: AB                  :      0.033u      0.000s      0.013w      1 calls
JKGrad: UV                  :      0.000u      0.000s      0.000w      1 calls
JKGrad: ABx                 :      0.017u      0.000s      0.010w      1 calls
JKGrad: Amnx                :      0.033u      0.000s      0.026w      1 calls
Grad: XC                    :      0.000u      0.000s      0.000w      1 calls

-----------------------------------------------------------
DFH: initialize()           :      0.050u      0.017s      0.038w      1 calls
| DFH: sparsity prep        :      0.017u      0.000s      0.010w      1 calls
| DFH: AO Construction      :      0.017u      0.000s      0.004w      1 calls
| DFH: AO-Met. Contraction  :      0.000u      0.000s      0.001w      1 calls
HF: Form H                  :      0.000u      0.000s      0.005w      1 calls
HF: Form S/X                :      0.000u      0.000s      0.000w      1 calls
HF: Guess                   :      0.100u      0.000s      0.061w      1 calls
| SAD Guess                 :      0.100u      0.000s      0.058w      1 calls
HF: Form G                  :      0.000u      0.017s      0.003w     11 calls
| JK: D                     :      0.000u      0.000s      0.000w     11 calls
| JK: USO2AO                :      0.000u      0.000s      0.000w     11 calls
| JK: JK                    :      0.000u      0.017s      0.002w     11 calls
| | DFH: compute_JK()       :      0.000u      0.017s      0.002w     11 calls
| | | DFH: Grabbing AOs     :      0.000u      0.000s      0.000w     11 calls
| | | DFH: compute_J        :      0.000u      0.017s      0.001w     11 calls
| | | DFH: compute_K        :      0.000u      0.000s      0.001w     11 calls
| JK: AO2USO                :      0.000u      0.000s      0.000w     11 calls
HF: Form F                  :      0.000u      0.000s      0.000w     11 calls
HF: DIIS                    :      0.000u      0.000s      0.002w     11 calls
| DIISManager::add_entry    :      0.000u      0.000s      0.001w     10 calls
| DIISManager::extrapolate  :      0.000u      0.000s      0.001w      9 calls
| | bMatrix setup           :      0.000u      0.000s      0.000w      9 calls
| | bMatrix pseudoinverse   :      0.000u      0.000s      0.000w      9 calls
| | New vector              :      0.000u      0.000s      0.000w      9 calls
HF: Form C                  :      0.000u      0.000s      0.001w     11 calls
HF: Form D                  :      0.000u      0.000s      0.000w     11 calls
Grad: V T Perturb           :      0.017u      0.017s      0.019w      1 calls
Grad: S                     :      0.000u      0.000s      0.000w      1 calls
Grad: JK                    :      0.117u      0.000s      0.076w      1 calls
| JKGrad: Amn               :      0.017u      0.000s      0.012w      1 calls
| JKGrad: Awmn              :      0.000u      0.000s      0.000w      1 calls
| JKGrad: AB                :      0.033u      0.000s      0.013w      1 calls
| JKGrad: UV                :      0.000u      0.000s      0.000w      1 calls
| JKGrad: ABx               :      0.017u      0.000s      0.010w      1 calls
| JKGrad: Amnx              :      0.033u      0.000s      0.026w      1 calls
Grad: XC                    :      0.000u      0.000s      0.000w      1 calls

***********************************************************

Host: node17

Timers On : Tue Aug 16 12:56:12 2022
Timers Off: Tue Aug 16 12:56:14 2022

Wall Time:        2.03 seconds

DFH: initialize()           :      0.050u      0.000s      0.038w      1 calls
DFH: sparsity prep          :      0.017u      0.000s      0.010w      1 calls
DFH: AO Construction        :      0.000u      0.000s      0.004w      1 calls
DFH: AO-Met. Contraction    :      0.000u      0.000s      0.001w      1 calls
HF: Form H                  :      0.000u      0.000s      0.004w      1 calls
HF: Form S/X                :      0.000u      0.000s      0.000w      1 calls
HF: Guess                   :      0.100u      0.000s      0.061w      1 calls
SAD Guess                   :      0.100u      0.000s      0.059w      1 calls
HF: Form G                  :      0.000u      0.000s      0.003w     11 calls
JK: D                       :      0.000u      0.000s      0.000w     11 calls
JK: USO2AO                  :      0.000u      0.000s      0.000w     11 calls
JK: JK                      :      0.000u      0.000s      0.002w     11 calls
DFH: compute_JK()           :      0.000u      0.000s      0.002w     11 calls
DFH: Grabbing AOs           :      0.000u      0.000s      0.000w     11 calls
DFH: compute_J              :      0.000u      0.000s      0.001w     11 calls
DFH: compute_K              :      0.000u      0.000s      0.001w     11 calls
JK: AO2USO                  :      0.000u      0.000s      0.000w     11 calls
HF: Form F                  :      0.000u      0.000s      0.000w     11 calls
HF: DIIS                    :      0.000u      0.000s      0.002w     11 calls
DIISManager::add_entry      :      0.000u      0.000s      0.001w     10 calls
DIISManager::extrapolate    :      0.000u      0.000s      0.001w      9 calls
bMatrix setup               :      0.000u      0.000s      0.000w      9 calls
bMatrix pseudoinverse       :      0.000u      0.000s      0.000w      9 calls
New vector                  :      0.000u      0.000s      0.000w      9 calls
HF: Form C                  :      0.000u      0.000s      0.001w     11 calls
HF: Form D                  :      0.000u      0.000s      0.000w     11 calls
Grad: V T Perturb           :      0.017u      0.000s      0.019w      1 calls
Grad: S                     :      0.000u      0.000s      0.000w      1 calls
Grad: JK                    :      0.117u      0.000s      0.074w      1 calls
JKGrad: Amn                 :      0.017u      0.000s      0.012w      1 calls
JKGrad: Awmn                :      0.000u      0.000s      0.000w      1 calls
JKGrad: AB                  :      0.033u      0.000s      0.012w      1 calls
JKGrad: UV                  :      0.000u      0.000s      0.000w      1 calls
JKGrad: ABx                 :      0.017u      0.000s      0.010w      1 calls
JKGrad: Amnx                :      0.033u      0.000s      0.026w      1 calls
Grad: XC                    :      0.000u      0.000s      0.000w      1 calls

-----------------------------------------------------------
DFH: initialize()           :      0.050u      0.000s      0.038w      1 calls
| DFH: sparsity prep        :      0.017u      0.000s      0.010w      1 calls
| DFH: AO Construction      :      0.000u      0.000s      0.004w      1 calls
| DFH: AO-Met. Contraction  :      0.000u      0.000s      0.001w      1 calls
HF: Form H                  :      0.000u      0.000s      0.004w      1 calls
HF: Form S/X                :      0.000u      0.000s      0.000w      1 calls
HF: Guess                   :      0.100u      0.000s      0.061w      1 calls
| SAD Guess                 :      0.100u      0.000s      0.059w      1 calls
HF: Form G                  :      0.000u      0.000s      0.003w     11 calls
| JK: D                     :      0.000u      0.000s      0.000w     11 calls
| JK: USO2AO                :      0.000u      0.000s      0.000w     11 calls
| JK: JK                    :      0.000u      0.000s      0.002w     11 calls
| | DFH: compute_JK()       :      0.000u      0.000s      0.002w     11 calls
| | | DFH: Grabbing AOs     :      0.000u      0.000s      0.000w     11 calls
| | | DFH: compute_J        :      0.000u      0.000s      0.001w     11 calls
| | | DFH: compute_K        :      0.000u      0.000s      0.001w     11 calls
| JK: AO2USO                :      0.000u      0.000s      0.000w     11 calls
HF: Form F                  :      0.000u      0.000s      0.000w     11 calls
HF: DIIS                    :      0.000u      0.000s      0.002w     11 calls
| DIISManager::add_entry    :      0.000u      0.000s      0.001w     10 calls
| DIISManager::extrapolate  :      0.000u      0.000s      0.001w      9 calls
| | bMatrix setup           :      0.000u      0.000s      0.000w      9 calls
| | bMatrix pseudoinverse   :      0.000u      0.000s      0.000w      9 calls
| | New vector              :      0.000u      0.000s      0.000w      9 calls
HF: Form C                  :      0.000u      0.000s      0.001w     11 calls
HF: Form D                  :      0.000u      0.000s      0.000w     11 calls
Grad: V T Perturb           :      0.017u      0.000s      0.019w      1 calls
Grad: S                     :      0.000u      0.000s      0.000w      1 calls
Grad: JK                    :      0.117u      0.000s      0.074w      1 calls
| JKGrad: Amn               :      0.017u      0.000s      0.012w      1 calls
| JKGrad: Awmn              :      0.000u      0.000s      0.000w      1 calls
| JKGrad: AB                :      0.033u      0.000s      0.012w      1 calls
| JKGrad: UV                :      0.000u      0.000s      0.000w      1 calls
| JKGrad: ABx               :      0.017u      0.000s      0.010w      1 calls
| JKGrad: Amnx              :      0.033u      0.000s      0.026w      1 calls
Grad: XC                    :      0.000u      0.000s      0.000w      1 calls

***********************************************************

Host: node17

Timers On : Tue Aug 16 12:57:21 2022
Timers Off: Tue Aug 16 12:57:22 2022

Wall Time:        0.95 seconds


-----------------------------------------------------------

***********************************************************

Host: node17

Timers On : Tue Aug 16 12:57:54 2022
Timers Off: Tue Aug 16 12:57:55 2022

Wall Time:        0.95 seconds


-----------------------------------------------------------

***********************************************************

Host: node17

Timers On : Tue Aug 16 13:00:27 2022
Timers Off: Tue Aug 16 13:00:29 2022

Wall Time:        1.42 seconds


-----------------------------------------------------------

***********************************************************

Host: master

Timers On : Tue Aug 16 13:21:33 2022
Timers Off: Tue Aug 16 13:21:40 2022

Wall Time:        7.66 seconds


-----------------------------------------------------------

***********************************************************

Host: node17

Timers On : Tue Aug 16 14:14:35 2022
Timers Off: Tue Aug 16 14:14:38 2022

Wall Time:        3.01 seconds

                                                       Time (seconds)
Module                                       User      System        Wall        Calls

--------------------------------------------------------------------------------------

**************************************************************************************

Host: node17

Timers On : Tue Aug 16 14:15:56 2022
Timers Off: Tue Aug 16 14:15:58 2022

Wall Time:        1.30 seconds

                                                       Time (seconds)
Module                                       User      System        Wall        Calls

--------------------------------------------------------------------------------------

**************************************************************************************

Host: node5

Timers On : Tue Aug 16 14:17:58 2022
Timers Off: Tue Aug 16 14:18:05 2022

Wall Time:        7.64 seconds

                                                       Time (seconds)
Module                                       User      System        Wall        Calls
DFH: sparsity prep                  :      0.017u      0.017s      0.018w      1 calls
Libint2ERI::Libint2ERI              :      0.033u      0.033s      0.037w      7 calls
DFH: initialize()                   :      0.033u      0.017s      0.029w      1 calls
DFH: AO Construction                :      0.000u      0.000s      0.007w      1 calls
DFH: AO-Met. Contraction            :      0.000u      0.000s      0.001w      1 calls
HF: Form core H                     :      0.017u      0.000s      0.003w      1 calls
HF: Form S/X                        :      0.000u      0.000s      0.000w      1 calls
HF: Guess                           :      0.083u      0.017s      0.064w      1 calls
SAD Guess                           :      0.083u      0.017s      0.062w      1 calls
HF: Form G                          :      0.000u      0.000s      0.005w     11 calls
JK: D                               :      0.000u      0.000s      0.000w     11 calls
JK: USO2AO                          :      0.000u      0.000s      0.001w     11 calls
JK: JK                              :      0.000u      0.000s      0.004w     11 calls
DFH: compute_JK()                   :      0.000u      0.000s      0.004w     11 calls
DFH: Grabbing AOs                   :      0.000u      0.000s      0.000w     11 calls
DFH: compute_J                      :      0.000u      0.000s      0.001w     11 calls
DFH: compute_K                      :      0.000u      0.000s      0.002w     11 calls
JK: AO2USO                          :      0.000u      0.000s      0.000w     11 calls
HF: Form F                          :      0.000u      0.000s      0.000w     11 calls
HF: Form D                          :      0.000u      0.000s      0.000w     11 calls
HF: DIIS                            :      0.200u      0.067s      2.575w     10 calls
HF: Form C                          :      0.067u      0.000s      0.007w     10 calls
Grad: V T Perturb                   :      0.000u      0.000s      0.001w      1 calls
Grad: S                             :      0.000u      0.000s      0.000w      1 calls
Grad: JK                            :      0.100u      0.000s      0.921w      1 calls
JKGrad: Amn                         :      0.033u      0.000s      0.016w      1 calls
JKGrad: Awmn                        :      0.000u      0.000s      0.000w      1 calls
JKGrad: AB                          :      0.017u      0.000s      0.010w      1 calls
JKGrad: UV                          :      0.000u      0.000s      0.000w      1 calls
JKGrad: ABx                         :      0.017u      0.000s      0.005w      1 calls
JKGrad: Amnx                        :      0.033u      0.000s      0.027w      1 calls
Grad: XC                            :      0.000u      0.000s      0.000w      1 calls

--------------------------------------------------------------------------------------
DFH: sparsity prep                  :      0.017u      0.017s      0.018w      1 calls
| Libint2ERI::Libint2ERI            :      0.017u      0.017s      0.014w      1 calls
DFH: initialize()                   :      0.033u      0.017s      0.029w      1 calls
| Libint2ERI::Libint2ERI            :      0.000u      0.017s      0.009w      2 calls
| DFH: AO Construction              :      0.000u      0.000s      0.007w      1 calls
| DFH: AO-Met. Contraction          :      0.000u      0.000s      0.001w      1 calls
HF: Form core H                     :      0.017u      0.000s      0.003w      1 calls
HF: Form S/X                        :      0.000u      0.000s      0.000w      1 calls
HF: Guess                           :      0.083u      0.017s      0.064w      1 calls
| SAD Guess                         :      0.083u      0.017s      0.062w      1 calls
HF: Form G                          :      0.000u      0.000s      0.005w     11 calls
| JK: D                             :      0.000u      0.000s      0.000w     11 calls
| JK: USO2AO                        :      0.000u      0.000s      0.001w     11 calls
| JK: JK                            :      0.000u      0.000s      0.004w     11 calls
| | DFH: compute_JK()               :      0.000u      0.000s      0.004w     11 calls
| | | DFH: Grabbing AOs             :      0.000u      0.000s      0.000w     11 calls
| | | DFH: compute_J                :      0.000u      0.000s      0.001w     11 calls
| | | DFH: compute_K                :      0.000u      0.000s      0.002w     11 calls
| JK: AO2USO                        :      0.000u      0.000s      0.000w     11 calls
HF: Form F                          :      0.000u      0.000s      0.000w     11 calls
HF: Form D                          :      0.000u      0.000s      0.000w     11 calls
HF: DIIS                            :      0.200u      0.067s      2.575w     10 calls
HF: Form C                          :      0.067u      0.000s      0.007w     10 calls
Grad: V T Perturb                   :      0.000u      0.000s      0.001w      1 calls
Grad: S                             :      0.000u      0.000s      0.000w      1 calls
Grad: JK                            :      0.100u      0.000s      0.921w      1 calls
| JKGrad: Amn                       :      0.033u      0.000s      0.016w      1 calls
| | Libint2ERI::Libint2ERI          :      0.000u      0.000s      0.007w      1 calls
| JKGrad: Awmn                      :      0.000u      0.000s      0.000w      1 calls
| JKGrad: AB                        :      0.017u      0.000s      0.010w      1 calls
| | Libint2ERI::Libint2ERI          :      0.000u      0.000s      0.000w      1 calls
| JKGrad: UV                        :      0.000u      0.000s      0.000w      1 calls
| JKGrad: ABx                       :      0.017u      0.000s      0.005w      1 calls
| | Libint2ERI::Libint2ERI          :      0.000u      0.000s      0.000w      1 calls
| JKGrad: Amnx                      :      0.033u      0.000s      0.027w      1 calls
| | Libint2ERI::Libint2ERI          :      0.017u      0.000s      0.007w      1 calls
Grad: XC                            :      0.000u      0.000s      0.000w      1 calls

**************************************************************************************

Host: node2

Timers On : Tue Aug 16 14:31:20 2022
Timers Off: Tue Aug 16 14:31:28 2022

Wall Time:        8.10 seconds

                                                       Time (seconds)
Module                                       User      System        Wall        Calls
DFH: sparsity prep                  :      0.033u      0.033s      0.034w      3 calls
Libint2ERI::Libint2ERI              :      0.017u      0.050s      0.054w     20 calls
DFH: initialize()                   :      0.117u      0.033s      0.068w      3 calls
DFH: AO Construction                :      0.050u      0.000s      0.013w      3 calls
DFH: AO-Met. Contraction            :      0.000u      0.000s      0.002w      3 calls
HF: Form core H                     :      0.000u      0.000s      0.007w      2 calls
HF: Form S/X                        :      0.000u      0.000s      0.000w      2 calls
HF: Guess                           :      0.183u      0.017s      0.125w      2 calls
SAD Guess                           :      0.183u      0.017s      0.120w      2 calls
HF: Form G                          :      0.017u      0.000s      0.009w     24 calls
JK: D                               :      0.000u      0.000s      0.000w     35 calls
JK: USO2AO                          :      0.000u      0.000s      0.001w     35 calls
JK: JK                              :      0.033u      0.000s      0.010w     35 calls
DFH: compute_JK()                   :      0.033u      0.000s      0.010w     35 calls
DFH: Grabbing AOs                   :      0.000u      0.000s      0.000w     35 calls
DFH: compute_J                      :      0.017u      0.000s      0.003w     35 calls
DFH: compute_K                      :      0.017u      0.000s      0.006w     35 calls
JK: AO2USO                          :      0.000u      0.000s      0.001w     35 calls
HF: Form F                          :      0.000u      0.000s      0.000w     24 calls
HF: Form D                          :      0.000u      0.000s      0.000w     24 calls
HF: DIIS                            :      0.317u      0.067s      1.498w     22 calls
HF: Form C                          :      0.017u      0.000s      0.009w     22 calls
DFMP2 Singles                       :      0.000u      0.000s      0.000w      2 calls
DFMP2 Aia                           :      0.033u      0.000s      0.112w      2 calls
DFMP2 (A|mn)                        :      0.017u      0.000s      0.007w      2 calls
DFMP2 (A|mn)C_mi                    :      0.000u      0.000s      0.000w      2 calls
DFMP2 (A|mi)C_na                    :      0.000u      0.000s      0.000w      2 calls
DFMP2 Aia Write                     :      0.000u      0.000s      0.000w      2 calls
DFMP2 Bia                           :      0.017u      0.000s      0.038w      1 calls
DFMP2 Metric                        :      0.017u      0.000s      0.014w      2 calls
DFMP2 Aia Read                      :      0.000u      0.000s      0.000w      2 calls
DFMP2 (ia|A)(A|Q)                   :      0.000u      0.000s      0.000w      2 calls
DFMP2 Bia Write                     :      0.000u      0.000s      0.000w      2 calls
DFMP2 Energy                        :      0.000u      0.000s      0.003w      1 calls
DFMP2 Bia Read                      :      0.000u      0.000s      0.000w      5 calls
DFMP2 iaB                           :      0.000u      0.000s      0.045w      1 calls
DFMP2 (ia|B)(B|Q)                   :      0.000u      0.000s      0.000w      1 calls
DFMP2 Cia Write                     :      0.000u      0.000s      0.000w      1 calls
DFMP2 aiB                           :      0.000u      0.000s      0.002w      1 calls
DFMP2 Tij                           :      0.000u      0.000s      0.002w      1 calls
DFMP2 Cia Read                      :      0.000u      0.000s      0.000w      2 calls
DFMP2 I                             :      0.000u      0.000s      0.000w      2 calls
DFMP2 T2                            :      0.000u      0.000s      0.000w      2 calls
DFMP2 G                             :      0.000u      0.000s      0.000w      1 calls
DFMP2 Pab                           :      0.000u      0.000s      0.000w      1 calls
DFMP2 Gia Write                     :      0.000u      0.000s      0.000w      1 calls
DFMP2 Tab                           :      0.000u      0.000s      0.002w      1 calls
DFMP2 Bai Read                      :      0.000u      0.000s      0.000w      1 calls
DFMP2 Qai Read                      :      0.000u      0.000s      0.000w      1 calls
DFMP2 Pij                           :      0.000u      0.000s      0.000w      1 calls
DFMP2 gamma                         :      0.017u      0.000s      0.002w      1 calls
DFMP2 Gia Read                      :      0.000u      0.000s      0.000w      2 calls
DFMP2 g                             :      0.017u      0.000s      0.000w      1 calls
DFMP2 Gia                           :      0.000u      0.000s      0.002w      1 calls
DFMP2 aiG Write                     :      0.000u      0.000s      0.000w      1 calls
DFMP2 AB^x                          :      0.000u      0.000s      0.007w      1 calls
DFMP2 Amn^x                         :      0.017u      0.000s      0.018w      1 calls
DFMP2 L                             :      0.017u      0.000s      0.009w      1 calls
DFMP2 P                             :      0.000u      0.000s      0.001w      1 calls
DFMP2 W                             :      0.000u      0.000s      0.001w      1 calls
DFMP2 Z                             :      0.067u      0.017s      0.039w      1 calls
DFMP2 grad                          :      0.067u      0.000s      0.051w      1 calls
Grad: V T Perturb                   :      0.000u      0.000s      0.001w      1 calls
Grad: S                             :      0.000u      0.000s      0.000w      1 calls
Grad: JK                            :      0.067u      0.000s      0.046w      1 calls
CorrGrad: Amn                       :      0.017u      0.000s      0.010w      1 calls
CorrGrad: AB                        :      0.017u      0.000s      0.010w      1 calls
CorrGrad: UV                        :      0.000u      0.000s      0.000w      1 calls
CorrGrad: ABx                       :      0.000u      0.000s      0.004w      1 calls
CorrGrad: Amnx                      :      0.033u      0.000s      0.017w      1 calls

--------------------------------------------------------------------------------------
DFH: sparsity prep                  :      0.017u      0.033s      0.025w      2 calls
| Libint2ERI::Libint2ERI            :      0.000u      0.033s      0.018w      2 calls
DFH: initialize()                   :      0.083u      0.017s      0.048w      2 calls
| Libint2ERI::Libint2ERI            :      0.017u      0.017s      0.013w      4 calls
| DFH: AO Construction              :      0.033u      0.000s      0.009w      2 calls
| DFH: AO-Met. Contraction          :      0.000u      0.000s      0.002w      2 calls
HF: Form core H                     :      0.000u      0.000s      0.007w      2 calls
HF: Form S/X                        :      0.000u      0.000s      0.000w      2 calls
HF: Guess                           :      0.183u      0.017s      0.125w      2 calls
| SAD Guess                         :      0.183u      0.017s      0.120w      2 calls
HF: Form G                          :      0.017u      0.000s      0.009w     24 calls
| JK: D                             :      0.000u      0.000s      0.000w     24 calls
| JK: USO2AO                        :      0.000u      0.000s      0.001w     24 calls
| JK: JK                            :      0.017u      0.000s      0.006w     24 calls
| | DFH: compute_JK()               :      0.017u      0.000s      0.006w     24 calls
| | | DFH: Grabbing AOs             :      0.000u      0.000s      0.000w     24 calls
| | | DFH: compute_J                :      0.017u      0.000s      0.002w     24 calls
| | | DFH: compute_K                :      0.000u      0.000s      0.003w     24 calls
| JK: AO2USO                        :      0.000u      0.000s      0.000w     24 calls
HF: Form F                          :      0.000u      0.000s      0.000w     24 calls
HF: Form D                          :      0.000u      0.000s      0.000w     24 calls
HF: DIIS                            :      0.317u      0.067s      1.498w     22 calls
HF: Form C                          :      0.017u      0.000s      0.009w     22 calls
DFMP2 Singles                       :      0.000u      0.000s      0.000w      2 calls
DFMP2 Aia                           :      0.033u      0.000s      0.112w      2 calls
| Libint2ERI::Libint2ERI            :      0.000u      0.000s      0.005w      2 calls
| DFMP2 (A|mn)                      :      0.017u      0.000s      0.007w      2 calls
| DFMP2 (A|mn)C_mi                  :      0.000u      0.000s      0.000w      2 calls
| DFMP2 (A|mi)C_na                  :      0.000u      0.000s      0.000w      2 calls
| DFMP2 Aia Write                   :      0.000u      0.000s      0.000w      2 calls
DFMP2 Bia                           :      0.017u      0.000s      0.038w      1 calls
| DFMP2 Metric                      :      0.017u      0.000s      0.008w      1 calls
| | Libint2ERI::Libint2ERI          :      0.000u      0.000s      0.000w      1 calls
| DFMP2 Aia Read                    :      0.000u      0.000s      0.000w      1 calls
| DFMP2 (ia|A)(A|Q)                 :      0.000u      0.000s      0.000w      1 calls
| DFMP2 Bia Write                   :      0.000u      0.000s      0.000w      1 calls
DFMP2 Energy                        :      0.000u      0.000s      0.003w      1 calls
| DFMP2 Bia Read                    :      0.000u      0.000s      0.000w      2 calls
DFMP2 iaB                           :      0.000u      0.000s      0.045w      1 calls
| DFMP2 Metric                      :      0.000u      0.000s      0.006w      1 calls
| | Libint2ERI::Libint2ERI          :      0.000u      0.000s      0.000w      1 calls
| DFMP2 Aia Read                    :      0.000u      0.000s      0.000w      1 calls
| DFMP2 (ia|A)(A|Q)                 :      0.000u      0.000s      0.000w      1 calls
| DFMP2 Bia Write                   :      0.000u      0.000s      0.000w      1 calls
| DFMP2 Bia Read                    :      0.000u      0.000s      0.000w      1 calls
| DFMP2 (ia|B)(B|Q)                 :      0.000u      0.000s      0.000w      1 calls
| DFMP2 Cia Write                   :      0.000u      0.000s      0.000w      1 calls
DFMP2 aiB                           :      0.000u      0.000s      0.002w      1 calls
DFMP2 Tij                           :      0.000u      0.000s      0.002w      1 calls
| DFMP2 Bia Read                    :      0.000u      0.000s      0.000w      2 calls
| DFMP2 Cia Read                    :      0.000u      0.000s      0.000w      1 calls
| DFMP2 I                           :      0.000u      0.000s      0.000w      1 calls
| DFMP2 T2                          :      0.000u      0.000s      0.000w      1 calls
| DFMP2 G                           :      0.000u      0.000s      0.000w      1 calls
| DFMP2 Pab                         :      0.000u      0.000s      0.000w      1 calls
| DFMP2 Gia Write                   :      0.000u      0.000s      0.000w      1 calls
DFMP2 Tab                           :      0.000u      0.000s      0.002w      1 calls
| DFMP2 Bai Read                    :      0.000u      0.000s      0.000w      1 calls
| DFMP2 Qai Read                    :      0.000u      0.000s      0.000w      1 calls
| DFMP2 I                           :      0.000u      0.000s      0.000w      1 calls
| DFMP2 T2                          :      0.000u      0.000s      0.000w      1 calls
| DFMP2 Pij                         :      0.000u      0.000s      0.000w      1 calls
DFMP2 gamma                         :      0.017u      0.000s      0.002w      1 calls
| DFMP2 Gia Read                    :      0.000u      0.000s      0.000w      1 calls
| DFMP2 Cia Read                    :      0.000u      0.000s      0.000w      1 calls
| DFMP2 g                           :      0.017u      0.000s      0.000w      1 calls
DFMP2 Gia                           :      0.000u      0.000s      0.002w      1 calls
| DFMP2 Gia Read                    :      0.000u      0.000s      0.000w      1 calls
| DFMP2 aiG Write                   :      0.000u      0.000s      0.000w      1 calls
DFMP2 AB^x                          :      0.000u      0.000s      0.007w      1 calls
| Libint2ERI::Libint2ERI            :      0.000u      0.000s      0.000w      1 calls
DFMP2 Amn^x                         :      0.017u      0.000s      0.018w      1 calls
| Libint2ERI::Libint2ERI            :      0.000u      0.000s      0.003w      1 calls
DFMP2 L                             :      0.017u      0.000s      0.009w      1 calls
| Libint2ERI::Libint2ERI            :      0.000u      0.000s      0.002w      1 calls
DFMP2 P                             :      0.000u      0.000s      0.001w      1 calls
DFMP2 W                             :      0.000u      0.000s      0.001w      1 calls
DFMP2 Z                             :      0.067u      0.017s      0.039w      1 calls
| DFH: sparsity prep                :      0.017u      0.000s      0.009w      1 calls
| | Libint2ERI::Libint2ERI          :      0.000u      0.000s      0.005w      1 calls
| DFH: initialize()                 :      0.033u      0.017s      0.019w      1 calls
| | Libint2ERI::Libint2ERI          :      0.000u      0.000s      0.004w      2 calls
| | DFH: AO Construction            :      0.017u      0.000s      0.004w      1 calls
| | DFH: AO-Met. Contraction        :      0.000u      0.000s      0.001w      1 calls
| JK: D                             :      0.000u      0.000s      0.000w     11 calls
| JK: USO2AO                        :      0.000u      0.000s      0.000w     11 calls
| JK: JK                            :      0.017u      0.000s      0.004w     11 calls
| | DFH: compute_JK()               :      0.017u      0.000s      0.004w     11 calls
| | | DFH: Grabbing AOs             :      0.000u      0.000s      0.000w     11 calls
| | | DFH: compute_J                :      0.000u      0.000s      0.001w     11 calls
| | | DFH: compute_K                :      0.017u      0.000s      0.003w     11 calls
| JK: AO2USO                        :      0.000u      0.000s      0.000w     11 calls
DFMP2 grad                          :      0.067u      0.000s      0.051w      1 calls
| Grad: V T Perturb                 :      0.000u      0.000s      0.001w      1 calls
| Grad: S                           :      0.000u      0.000s      0.000w      1 calls
| Grad: JK                          :      0.067u      0.000s      0.046w      1 calls
| | CorrGrad: Amn                   :      0.017u      0.000s      0.010w      1 calls
| | | Libint2ERI::Libint2ERI        :      0.000u      0.000s      0.002w      1 calls
| | CorrGrad: AB                    :      0.017u      0.000s      0.010w      1 calls
| | | Libint2ERI::Libint2ERI        :      0.000u      0.000s      0.000w      1 calls
| | CorrGrad: UV                    :      0.000u      0.000s      0.000w      1 calls
| | CorrGrad: ABx                   :      0.000u      0.000s      0.004w      1 calls
| | | Libint2ERI::Libint2ERI        :      0.000u      0.000s      0.000w      1 calls
| | CorrGrad: Amnx                  :      0.033u      0.000s      0.017w      1 calls
| | | Libint2ERI::Libint2ERI        :      0.000u      0.000s      0.002w      1 calls

**************************************************************************************

Host: node4

Timers On : Tue Aug 16 14:38:12 2022
Timers Off: Tue Aug 16 14:38:36 2022

Wall Time:       24.60 seconds

                                                       Time (seconds)
Module                                       User      System        Wall        Calls
DFH: sparsity prep                  :      0.183u      0.083s      0.204w     18 calls
Libint2ERI::Libint2ERI              :      0.317u      0.133s      0.342w    120 calls
DFH: initialize()                   :      0.667u      0.083s      0.467w     18 calls
DFH: AO Construction                :      0.183u      0.000s      0.121w     18 calls
DFH: AO-Met. Contraction            :      0.000u      0.000s      0.011w     18 calls
HF: Form core H                     :      0.083u      0.017s      0.639w     12 calls
HF: Form S/X                        :      0.000u      0.000s      0.004w     12 calls
HF: Guess                           :      1.167u      0.100s      0.785w     12 calls
SAD Guess                           :      1.117u      0.100s      0.753w     12 calls
HF: Form G                          :      0.067u      0.000s      0.068w    144 calls
JK: D                               :      0.000u      0.000s      0.002w    210 calls
JK: USO2AO                          :      0.000u      0.000s      0.013w    210 calls
JK: JK                              :      0.117u      0.000s      0.084w    210 calls
DFH: compute_JK()                   :      0.117u      0.000s      0.082w    210 calls
DFH: Grabbing AOs                   :      0.000u      0.000s      0.000w    210 calls
DFH: compute_J                      :      0.017u      0.000s      0.018w    210 calls
DFH: compute_K                      :      0.083u      0.000s      0.058w    210 calls
JK: AO2USO                          :      0.017u      0.000s      0.005w    210 calls
HF: Form F                          :      0.000u      0.000s      0.002w    144 calls
HF: Form D                          :      0.000u      0.000s      0.002w    144 calls
HF: DIIS                            :      1.417u      0.133s      3.576w    132 calls
HF: Form C                          :      0.233u      0.000s      0.101w    132 calls
DFMP2 Singles                       :      0.000u      0.000s      0.002w     12 calls
DFMP2 Aia                           :      0.183u      0.017s      0.743w     12 calls
DFMP2 (A|mn)                        :      0.067u      0.000s      0.058w     12 calls
DFMP2 (A|mn)C_mi                    :      0.000u      0.000s      0.001w     12 calls
DFMP2 (A|mi)C_na                    :      0.017u      0.000s      0.001w     12 calls
DFMP2 Aia Write                     :      0.000u      0.000s      0.001w     12 calls
DFMP2 Bia                           :      0.083u      0.000s      0.644w      6 calls
DFMP2 Metric                        :      0.150u      0.000s      0.091w     12 calls
DFMP2 Aia Read                      :      0.000u      0.000s      0.003w     12 calls
DFMP2 (ia|A)(A|Q)                   :      0.017u      0.000s      0.001w     12 calls
DFMP2 Bia Write                     :      0.000u      0.000s      0.001w     12 calls
DFMP2 Energy                        :      0.000u      0.000s      0.141w      6 calls
DFMP2 Bia Read                      :      0.000u      0.000s      0.000w     30 calls
DFMP2 iaB                           :      0.100u      0.000s      0.326w      6 calls
DFMP2 (ia|B)(B|Q)                   :      0.000u      0.000s      0.001w      6 calls
DFMP2 Cia Write                     :      0.000u      0.000s      0.001w      6 calls
DFMP2 aiB                           :      0.000u      0.017s      0.034w      6 calls
DFMP2 Tij                           :      0.000u      0.000s      0.025w      6 calls
DFMP2 Cia Read                      :      0.000u      0.000s      0.000w     12 calls
DFMP2 I                             :      0.000u      0.000s      0.002w     12 calls
DFMP2 T2                            :      0.000u      0.000s      0.001w     12 calls
DFMP2 G                             :      0.000u      0.000s      0.001w      6 calls
DFMP2 Pab                           :      0.000u      0.000s      0.000w      6 calls
DFMP2 Gia Write                     :      0.000u      0.000s      0.000w      6 calls
DFMP2 Tab                           :      0.000u      0.000s      0.186w      6 calls
DFMP2 Bai Read                      :      0.000u      0.000s      0.000w      6 calls
DFMP2 Qai Read                      :      0.000u      0.000s      0.000w      6 calls
DFMP2 Pij                           :      0.000u      0.000s      0.000w      6 calls
DFMP2 gamma                         :      0.000u      0.000s      0.018w      6 calls
DFMP2 Gia Read                      :      0.000u      0.000s      0.000w     12 calls
DFMP2 g                             :      0.000u      0.000s      0.001w      6 calls
DFMP2 Gia                           :      0.000u      0.000s      0.097w      6 calls
DFMP2 aiG Write                     :      0.000u      0.000s      0.001w      6 calls
DFMP2 AB^x                          :      0.050u      0.033s      0.042w      6 calls
DFMP2 Amn^x                         :      0.200u      0.000s      0.321w      6 calls
DFMP2 L                             :      0.083u      0.000s      0.659w      6 calls
DFMP2 P                             :      0.000u      0.000s      0.019w      6 calls
DFMP2 W                             :      0.017u      0.000s      0.048w      6 calls
DFMP2 Z                             :      0.350u      0.100s      0.875w      6 calls
DFMP2 grad                          :      0.600u      0.033s      1.310w      6 calls
Grad: V T Perturb                   :      0.017u      0.000s      0.009w      6 calls
Grad: S                             :      0.000u      0.000s      0.002w      6 calls
Grad: JK                            :      0.533u      0.033s      1.264w      6 calls
CorrGrad: Amn                       :      0.100u      0.000s      0.078w      6 calls
CorrGrad: AB                        :      0.100u      0.033s      0.067w      6 calls
CorrGrad: UV                        :      0.000u      0.000s      0.002w      6 calls
CorrGrad: ABx                       :      0.017u      0.000s      0.034w      6 calls
CorrGrad: Amnx                      :      0.283u      0.000s      0.144w      6 calls

--------------------------------------------------------------------------------------
DFH: sparsity prep                  :      0.133u      0.050s      0.143w     12 calls
| Libint2ERI::Libint2ERI            :      0.050u      0.050s      0.098w     12 calls
DFH: initialize()                   :      0.467u      0.033s      0.320w     12 calls
| Libint2ERI::Libint2ERI            :      0.083u      0.000s      0.080w     24 calls
| DFH: AO Construction              :      0.133u      0.000s      0.081w     12 calls
| DFH: AO-Met. Contraction          :      0.000u      0.000s      0.008w     12 calls
HF: Form core H                     :      0.083u      0.017s      0.639w     12 calls
HF: Form S/X                        :      0.000u      0.000s      0.004w     12 calls
HF: Guess                           :      1.167u      0.100s      0.785w     12 calls
| SAD Guess                         :      1.117u      0.100s      0.753w     12 calls
HF: Form G                          :      0.067u      0.000s      0.068w    144 calls
| JK: D                             :      0.000u      0.000s      0.001w    144 calls
| JK: USO2AO                        :      0.000u      0.000s      0.010w    144 calls
| JK: JK                            :      0.050u      0.000s      0.048w    144 calls
| | DFH: compute_JK()               :      0.050u      0.000s      0.047w    144 calls
| | | DFH: Grabbing AOs             :      0.000u      0.000s      0.000w    144 calls
| | | DFH: compute_J                :      0.000u      0.000s      0.012w    144 calls
| | | DFH: compute_K                :      0.033u      0.000s      0.030w    144 calls
| JK: AO2USO                        :      0.017u      0.000s      0.004w    144 calls
HF: Form F                          :      0.000u      0.000s      0.002w    144 calls
HF: Form D                          :      0.000u      0.000s      0.002w    144 calls
HF: DIIS                            :      1.417u      0.133s      3.576w    132 calls
HF: Form C                          :      0.233u      0.000s      0.101w    132 calls
DFMP2 Singles                       :      0.000u      0.000s      0.002w     12 calls
DFMP2 Aia                           :      0.183u      0.017s      0.743w     12 calls
| Libint2ERI::Libint2ERI            :      0.067u      0.000s      0.032w     12 calls
| DFMP2 (A|mn)                      :      0.067u      0.000s      0.058w     12 calls
| DFMP2 (A|mn)C_mi                  :      0.000u      0.000s      0.001w     12 calls
| DFMP2 (A|mi)C_na                  :      0.017u      0.000s      0.001w     12 calls
| DFMP2 Aia Write                   :      0.000u      0.000s      0.001w     12 calls
DFMP2 Bia                           :      0.083u      0.000s      0.644w      6 calls
| DFMP2 Metric                      :      0.083u      0.000s      0.046w      6 calls
| | Libint2ERI::Libint2ERI          :      0.000u      0.000s      0.000w      6 calls
| DFMP2 Aia Read                    :      0.000u      0.000s      0.001w      6 calls
| DFMP2 (ia|A)(A|Q)                 :      0.000u      0.000s      0.001w      6 calls
| DFMP2 Bia Write                   :      0.000u      0.000s      0.001w      6 calls
DFMP2 Energy                        :      0.000u      0.000s      0.141w      6 calls
| DFMP2 Bia Read                    :      0.000u      0.000s      0.000w     12 calls
DFMP2 iaB                           :      0.100u      0.000s      0.326w      6 calls
| DFMP2 Metric                      :      0.067u      0.000s      0.045w      6 calls
| | Libint2ERI::Libint2ERI          :      0.000u      0.000s      0.000w      6 calls
| DFMP2 Aia Read                    :      0.000u      0.000s      0.002w      6 calls
| DFMP2 (ia|A)(A|Q)                 :      0.017u      0.000s      0.001w      6 calls
| DFMP2 Bia Write                   :      0.000u      0.000s      0.000w      6 calls
| DFMP2 Bia Read                    :      0.000u      0.000s      0.000w      6 calls
| DFMP2 (ia|B)(B|Q)                 :      0.000u      0.000s      0.001w      6 calls
| DFMP2 Cia Write                   :      0.000u      0.000s      0.001w      6 calls
DFMP2 aiB                           :      0.000u      0.017s      0.034w      6 calls
DFMP2 Tij                           :      0.000u      0.000s      0.025w      6 calls
| DFMP2 Bia Read                    :      0.000u      0.000s      0.000w     12 calls
| DFMP2 Cia Read                    :      0.000u      0.000s      0.000w      6 calls
| DFMP2 I                           :      0.000u      0.000s      0.001w      6 calls
| DFMP2 T2                          :      0.000u      0.000s      0.000w      6 calls
| DFMP2 G                           :      0.000u      0.000s      0.001w      6 calls
| DFMP2 Pab                         :      0.000u      0.000s      0.000w      6 calls
| DFMP2 Gia Write                   :      0.000u      0.000s      0.000w      6 calls
DFMP2 Tab                           :      0.000u      0.000s      0.186w      6 calls
| DFMP2 Bai Read                    :      0.000u      0.000s      0.000w      6 calls
| DFMP2 Qai Read                    :      0.000u      0.000s      0.000w      6 calls
| DFMP2 I                           :      0.000u      0.000s      0.001w      6 calls
| DFMP2 T2                          :      0.000u      0.000s      0.000w      6 calls
| DFMP2 Pij                         :      0.000u      0.000s      0.000w      6 calls
DFMP2 gamma                         :      0.000u      0.000s      0.018w      6 calls
| DFMP2 Gia Read                    :      0.000u      0.000s      0.000w      6 calls
| DFMP2 Cia Read                    :      0.000u      0.000s      0.000w      6 calls
| DFMP2 g                           :      0.000u      0.000s      0.001w      6 calls
DFMP2 Gia                           :      0.000u      0.000s      0.097w      6 calls
| DFMP2 Gia Read                    :      0.000u      0.000s      0.000w      6 calls
| DFMP2 aiG Write                   :      0.000u      0.000s      0.001w      6 calls
DFMP2 AB^x                          :      0.050u      0.033s      0.042w      6 calls
| Libint2ERI::Libint2ERI            :      0.000u      0.000s      0.000w      6 calls
DFMP2 Amn^x                         :      0.200u      0.000s      0.321w      6 calls
| Libint2ERI::Libint2ERI            :      0.033u      0.000s      0.018w      6 calls
DFMP2 L                             :      0.083u      0.000s      0.659w      6 calls
| Libint2ERI::Libint2ERI            :      0.000u      0.000s      0.014w      6 calls
DFMP2 P                             :      0.000u      0.000s      0.019w      6 calls
DFMP2 W                             :      0.017u      0.000s      0.048w      6 calls
DFMP2 Z                             :      0.350u      0.100s      0.875w      6 calls
| DFH: sparsity prep                :      0.050u      0.033s      0.060w      6 calls
| | Libint2ERI::Libint2ERI          :      0.017u      0.033s      0.036w      6 calls
| DFH: initialize()                 :      0.200u      0.050s      0.147w      6 calls
| | Libint2ERI::Libint2ERI          :      0.050u      0.050s      0.030w     12 calls
| | DFH: AO Construction            :      0.050u      0.000s      0.040w      6 calls
| | DFH: AO-Met. Contraction        :      0.000u      0.000s      0.003w      6 calls
| JK: D                             :      0.000u      0.000s      0.001w     66 calls
| JK: USO2AO                        :      0.000u      0.000s      0.002w     66 calls
| JK: JK                            :      0.067u      0.000s      0.036w     66 calls
| | DFH: compute_JK()               :      0.067u      0.000s      0.035w     66 calls
| | | DFH: Grabbing AOs             :      0.000u      0.000s      0.000w     66 calls
| | | DFH: compute_J                :      0.017u      0.000s      0.006w     66 calls
| | | DFH: compute_K                :      0.050u      0.000s      0.027w     66 calls
| JK: AO2USO                        :      0.000u      0.000s      0.001w     66 calls
DFMP2 grad                          :      0.600u      0.033s      1.310w      6 calls
| Grad: V T Perturb                 :      0.017u      0.000s      0.009w      6 calls
| Grad: S                           :      0.000u      0.000s      0.002w      6 calls
| Grad: JK                          :      0.533u      0.033s      1.264w      6 calls
| | CorrGrad: Amn                   :      0.100u      0.000s      0.078w      6 calls
| | | Libint2ERI::Libint2ERI        :      0.000u      0.000s      0.015w      6 calls
| | CorrGrad: AB                    :      0.100u      0.033s      0.067w      6 calls
| | | Libint2ERI::Libint2ERI        :      0.000u      0.000s      0.000w      6 calls
| | CorrGrad: UV                    :      0.000u      0.000s      0.002w      6 calls
| | CorrGrad: ABx                   :      0.017u      0.000s      0.034w      6 calls
| | | Libint2ERI::Libint2ERI        :      0.000u      0.000s      0.000w      6 calls
| | CorrGrad: Amnx                  :      0.283u      0.000s      0.144w      6 calls
| | | Libint2ERI::Libint2ERI        :      0.017u      0.000s      0.017w      6 calls

**************************************************************************************

Host: node8

Timers On : Tue Aug 16 14:46:59 2022
Timers Off: Tue Aug 16 14:47:10 2022

Wall Time:       11.31 seconds

                                                       Time (seconds)
Module                                       User      System        Wall        Calls
DFH: sparsity prep                  :      0.050u      0.033s      0.045w      3 calls
Libint2ERI::Libint2ERI              :      0.100u      0.050s      0.078w     20 calls
DFH: initialize()                   :      0.133u      0.017s      0.097w      3 calls
DFH: AO Construction                :      0.033u      0.000s      0.024w      3 calls
DFH: AO-Met. Contraction            :      0.017u      0.000s      0.003w      3 calls
HF: Form core H                     :      0.017u      0.000s      0.017w      2 calls
HF: Form S/X                        :      0.000u      0.000s      0.001w      2 calls
HF: Guess                           :      0.233u      0.033s      0.168w      2 calls
SAD Guess                           :      0.233u      0.033s      0.162w      2 calls
HF: Form G                          :      0.017u      0.000s      0.014w     24 calls
JK: D                               :      0.000u      0.000s      0.000w     35 calls
JK: USO2AO                          :      0.000u      0.000s      0.002w     35 calls
JK: JK                              :      0.017u      0.000s      0.017w     35 calls
DFH: compute_JK()                   :      0.017u      0.000s      0.017w     35 calls
DFH: Grabbing AOs                   :      0.000u      0.000s      0.000w     35 calls
DFH: compute_J                      :      0.000u      0.000s      0.004w     35 calls
DFH: compute_K                      :      0.017u      0.000s      0.012w     35 calls
JK: AO2USO                          :      0.000u      0.000s      0.001w     35 calls
HF: Form F                          :      0.017u      0.000s      0.000w     24 calls
HF: Form D                          :      0.000u      0.000s      0.000w     24 calls
HF: DIIS                            :      0.467u      0.150s      2.194w     22 calls
HF: Form C                          :      0.050u      0.000s      0.020w     22 calls
DFMP2 Singles                       :      0.000u      0.000s      0.000w      2 calls
DFMP2 Aia                           :      0.033u      0.000s      0.065w      2 calls
DFMP2 (A|mn)                        :      0.000u      0.000s      0.011w      2 calls
DFMP2 (A|mn)C_mi                    :      0.000u      0.000s      0.000w      2 calls
DFMP2 (A|mi)C_na                    :      0.000u      0.000s      0.000w      2 calls
DFMP2 Aia Write                     :      0.000u      0.000s      0.000w      2 calls
DFMP2 Bia                           :      0.017u      0.000s      0.028w      1 calls
DFMP2 Metric                        :      0.033u      0.000s      0.018w      2 calls
DFMP2 Aia Read                      :      0.000u      0.000s      0.000w      2 calls
DFMP2 (ia|A)(A|Q)                   :      0.000u      0.000s      0.000w      2 calls
DFMP2 Bia Write                     :      0.000u      0.000s      0.000w      2 calls
DFMP2 Energy                        :      0.000u      0.000s      0.032w      1 calls
DFMP2 Bia Read                      :      0.000u      0.000s      0.000w      5 calls
DFMP2 iaB                           :      0.017u      0.000s      0.020w      1 calls
DFMP2 (ia|B)(B|Q)                   :      0.000u      0.000s      0.000w      1 calls
DFMP2 Cia Write                     :      0.000u      0.000s      0.000w      1 calls
DFMP2 aiB                           :      0.000u      0.000s      0.003w      1 calls
DFMP2 Tij                           :      0.000u      0.000s      0.003w      1 calls
DFMP2 Cia Read                      :      0.000u      0.000s      0.000w      2 calls
DFMP2 I                             :      0.000u      0.000s      0.000w      2 calls
DFMP2 T2                            :      0.000u      0.000s      0.000w      2 calls
DFMP2 G                             :      0.000u      0.000s      0.000w      1 calls
DFMP2 Pab                           :      0.000u      0.000s      0.000w      1 calls
DFMP2 Gia Write                     :      0.000u      0.000s      0.000w      1 calls
DFMP2 Tab                           :      0.017u      0.000s      0.003w      1 calls
DFMP2 Bai Read                      :      0.000u      0.000s      0.000w      1 calls
DFMP2 Qai Read                      :      0.000u      0.000s      0.000w      1 calls
DFMP2 Pij                           :      0.000u      0.000s      0.000w      1 calls
DFMP2 gamma                         :      0.000u      0.000s      0.059w      1 calls
DFMP2 Gia Read                      :      0.000u      0.000s      0.000w      2 calls
DFMP2 g                             :      0.000u      0.000s      0.000w      1 calls
DFMP2 Gia                           :      0.000u      0.000s      0.004w      1 calls
DFMP2 aiG Write                     :      0.000u      0.000s      0.000w      1 calls
DFMP2 AB^x                          :      0.000u      0.000s      0.012w      1 calls
DFMP2 Amn^x                         :      0.050u      0.000s      0.031w      1 calls
DFMP2 L                             :      0.017u      0.017s      0.029w      1 calls
DFMP2 P                             :      0.000u      0.000s      0.003w      1 calls
DFMP2 W                             :      0.000u      0.000s      0.003w      1 calls
DFMP2 Z                             :      0.067u      0.017s      0.062w      1 calls
DFMP2 grad                          :      0.117u      0.000s      0.089w      1 calls
Grad: V T Perturb                   :      0.000u      0.000s      0.002w      1 calls
[...]

Host: node18

Timers On : Thu Aug 18 12:45:27 2022
Timers Off: Thu Aug 18 12:48:21 2022

Wall Time:      173.54 seconds

                                                       Time (seconds)
Module                                       User      System        Wall        Calls
Total PK formation time             :      5.533u      0.233s      3.473w     14 calls
Libint2ERI::Libint2ERI              :      0.617u      0.217s      0.501w     42 calls
HF: Form core H                     :      0.017u      0.017s      0.258w     14 calls
HF: Form S/X                        :      0.000u      0.000s      0.007w     14 calls
HF: Guess                           :      1.867u      0.067s      1.129w     14 calls
SAD Guess                           :      1.783u      0.050s      1.094w     14 calls
HF: Form G                          :      1.833u      0.017s      0.828w    210 calls
JK: D                               :      0.017u      0.000s      0.003w    210 calls
JK: USO2AO                          :      0.100u      0.000s      0.028w    210 calls
JK: JK                              :      1.717u      0.017s      0.758w    210 calls
PK computes JK                      :      1.700u      0.017s      0.754w    210 calls
JK: AO2USO                          :      0.000u      0.000s      0.026w    210 calls
HF: Form F                          :      0.033u      0.000s      0.023w    210 calls
HF: Form D                          :      0.017u      0.000s      0.005w    210 calls
HF: DIIS                            :      1.050u      0.000s      1.006w    196 calls
HF: Form C                          :      0.067u      0.017s      0.141w    196 calls
ccenergy                            :     36.767u     18.433s    118.432w     14 calls
F build                             :      4.250u      1.217s      3.293w    252 calls
Wmbej build                         :      7.617u      2.833s      6.257w    252 calls
C->Wmbej                            :      0.467u      0.117s      0.291w    252 calls
F->Wmbej                            :      2.883u      1.650s      2.897w    252 calls
E->Wmbej                            :      0.883u      0.567s      0.873w    252 calls
X->Wmbej                            :      3.200u      0.333s      1.965w    252 calls
Z                                   :      1.617u      0.917s      1.502w    252 calls
T2 Build                            :     16.233u      8.600s     15.044w    252 calls
BT2                                 :      6.183u      3.933s      5.976w    252 calls
FT2                                 :      2.200u      1.067s      2.041w    252 calls
WmbejT2                             :      3.117u      1.483s      2.757w    252 calls
CT2                                 :      1.550u      1.683s      1.985w    252 calls
cchbar                              :      3.100u      4.133s      9.572w      7 calls
cceom                               :     10.283u      4.467s     13.703w      7 calls
HBAR_EXTRA                          :      0.017u      0.050s      0.051w      7 calls
INIT GUESS                          :      0.383u      0.067s      1.140w      7 calls
SIGMA ALL                           :      8.567u      3.067s      6.941w     98 calls
sigmaSS                             :      0.050u      0.050s      0.054w     98 calls
sigmaSD                             :      0.383u      0.267s      0.424w     98 calls
FSD                                 :      0.083u      0.050s      0.084w     98 calls
WamefSD                             :      0.267u      0.200s      0.274w     98 calls
WmnieSD                             :      0.033u      0.017s      0.066w     98 calls
sigmaDS                             :      2.217u      0.767s      1.777w     98 calls
WmaijDS                             :      0.267u      0.067s      0.149w     98 calls
WabejDS                             :      0.500u      0.317s      0.469w     98 calls
WnmjeDS                             :      0.367u      0.167s      0.230w     98 calls
WbmfeDS                             :      1.083u      0.217s      0.929w     98 calls
sigmaDD                             :      5.917u      1.983s      4.685w     98 calls
FDD                                 :      0.700u      0.133s      0.448w     98 calls
WmnijDD                             :      0.017u      0.000s      0.022w     98 calls
WabefDD                             :      3.333u      1.717s      2.996w     98 calls
WmbejDD                             :      0.900u      0.083s      0.613w     98 calls
WmnefDD                             :      0.967u      0.050s      0.604w     98 calls
BUILD G                             :      0.267u      0.100s      0.214w    105 calls
CALC RES                            :      0.417u      0.383s      0.483w    105 calls
RESTART                             :      0.050u      0.067s      0.081w     14 calls

--------------------------------------------------------------------------------------
Total PK formation time             :      5.533u      0.233s      3.473w     14 calls
| Libint2ERI::Libint2ERI            :      0.417u      0.133s      0.325w     28 calls
HF: Form core H                     :      0.017u      0.017s      0.258w     14 calls
HF: Form S/X                        :      0.000u      0.000s      0.007w     14 calls
HF: Guess                           :      1.867u      0.067s      1.129w     14 calls
| SAD Guess                         :      1.783u      0.050s      1.094w     14 calls
HF: Form G                          :      1.833u      0.017s      0.828w    210 calls
| JK: D                             :      0.017u      0.000s      0.003w    210 calls
| JK: USO2AO                        :      0.100u      0.000s      0.028w    210 calls
| JK: JK                            :      1.717u      0.017s      0.758w    210 calls
| | PK computes JK                  :      1.700u      0.017s      0.754w    210 calls
| JK: AO2USO                        :      0.000u      0.000s      0.026w    210 calls
HF: Form F                          :      0.033u      0.000s      0.023w    210 calls
HF: Form D                          :      0.017u      0.000s      0.005w    210 calls
HF: DIIS                            :      1.050u      0.000s      1.006w    196 calls
HF: Form C                          :      0.067u      0.017s      0.141w    196 calls
Libint2ERI::Libint2ERI              :      0.200u      0.083s      0.176w     14 calls
ccenergy                            :     36.767u     18.433s    118.432w     14 calls
| F build                           :      4.250u      1.217s      3.293w    252 calls
| Wmbej build                       :      7.617u      2.833s      6.257w    252 calls
| | C->Wmbej                        :      0.467u      0.117s      0.291w    252 calls
| | F->Wmbej                        :      2.883u      1.650s      2.897w    252 calls
| | E->Wmbej                        :      0.883u      0.567s      0.873w    252 calls
| | X->Wmbej                        :      3.200u      0.333s      1.965w    252 calls
| Z                                 :      1.617u      0.917s      1.502w    252 calls
| T2 Build                          :     16.233u      8.600s     15.044w    252 calls
| | BT2                             :      6.183u      3.933s      5.976w    252 calls
| | FT2                             :      2.200u      1.067s      2.041w    252 calls
| | WmbejT2                         :      3.117u      1.483s      2.757w    252 calls
| | CT2                             :      1.550u      1.683s      1.985w    252 calls
cchbar                              :      3.100u      4.133s      9.572w      7 calls
cceom                               :     10.283u      4.467s     13.703w      7 calls
| HBAR_EXTRA                        :      0.017u      0.050s      0.051w      7 calls
| INIT GUESS                        :      0.383u      0.067s      1.140w      7 calls
| SIGMA ALL                         :      8.567u      3.067s      6.941w     98 calls
| | sigmaSS                         :      0.050u      0.050s      0.054w     98 calls
| | sigmaSD                         :      0.383u      0.267s      0.424w     98 calls
| | | FSD                           :      0.083u      0.050s      0.084w     98 calls
| | | WamefSD                       :      0.267u      0.200s      0.274w     98 calls
| | | WmnieSD                       :      0.033u      0.017s      0.066w     98 calls
| | sigmaDS                         :      2.217u      0.767s      1.777w     98 calls
| | | WmaijDS                       :      0.267u      0.067s      0.149w     98 calls
| | | WabejDS                       :      0.500u      0.317s      0.469w     98 calls
| | | WnmjeDS                       :      0.367u      0.167s      0.230w     98 calls
| | | WbmfeDS                       :      1.083u      0.217s      0.929w     98 calls
| | sigmaDD                         :      5.917u      1.983s      4.685w     98 calls
| | | FDD                           :      0.700u      0.133s      0.448w     98 calls
| | | WmnijDD                       :      0.017u      0.000s      0.022w     98 calls
| | | WabefDD                       :      3.333u      1.717s      2.996w     98 calls
| | | WmbejDD                       :      0.900u      0.083s      0.613w     98 calls
| | | WmnefDD                       :      0.967u      0.050s      0.604w     98 calls
| BUILD G                           :      0.267u      0.100s      0.214w    105 calls
| CALC RES                          :      0.417u      0.383s      0.483w    105 calls
| RESTART                           :      0.050u      0.067s      0.081w     14 calls

**************************************************************************************

Host: node8

Timers On : Thu Aug 18 12:51:49 2022
Timers Off: Thu Aug 18 12:51:49 2022

Wall Time:        0.93 seconds

                                                       Time (seconds)
Module                                       User      System        Wall        Calls

--------------------------------------------------------------------------------------

**************************************************************************************

Host: node8

Timers On : Thu Aug 18 12:51:46 2022
Timers Off: Thu Aug 18 13:26:10 2022

Wall Time:     2064.37 seconds

                                                       Time (seconds)
Module                                       User      System        Wall        Calls
Total PK formation time             :     50.633u      0.483s     30.766w     84 calls
Libint2ERI::Libint2ERI              :      5.300u      0.650s      3.557w    252 calls
HF: Form core H                     :      0.550u      0.017s      1.329w     84 calls
HF: Form S/X                        :      0.133u      0.000s      0.071w     84 calls
HF: Guess                           :     15.050u      0.067s      9.118w     84 calls
SAD Guess                           :     14.650u      0.050s      8.880w     84 calls
HF: Form G                          :      7.533u      0.033s      4.726w   1260 calls
JK: D                               :      0.000u      0.000s      0.018w   1260 calls
JK: USO2AO                          :      0.433u      0.000s      0.185w   1260 calls
JK: JK                              :      6.733u      0.033s      4.245w   1260 calls
PK computes JK                      :      6.733u      0.033s      4.221w   1260 calls
JK: AO2USO                          :      0.183u      0.000s      0.185w   1260 calls
HF: Form F                          :      0.333u      0.000s      0.168w   1260 calls
HF: Form D                          :      0.033u      0.000s      0.038w   1260 calls
HF: DIIS                            :      9.117u      0.317s      7.071w   1176 calls
HF: Form C                          :      2.333u      0.017s      1.521w   1176 calls
ccenergy                            :    299.867u    154.767s   1116.283w     84 calls
F build                             :     41.267u      7.950s     29.838w   1512 calls
Wmbej build                         :     52.667u     20.200s     43.915w   1512 calls
C->Wmbej                            :      1.917u      1.250s      2.101w   1512 calls
F->Wmbej                            :     20.283u     12.517s     19.665w   1512 calls
E->Wmbej                            :      7.267u      3.983s      6.614w   1512 calls
X->Wmbej                            :     21.650u      1.750s     14.215w   1512 calls
Z                                   :     12.183u      6.550s     11.051w   1512 calls
T2 Build                            :    120.933u     65.383s    111.798w   1512 calls
BT2                                 :     41.533u     28.400s     41.948w   1512 calls
FT2                                 :     15.817u      8.533s     14.373w   1512 calls
WmbejT2                             :     21.167u     11.083s     19.468w   1512 calls
CT2                                 :     12.767u     11.233s     14.465w   1512 calls
cchbar                              :     21.633u     28.800s     60.432w     42 calls
cceom                               :     84.083u     38.683s    113.028w     42 calls
HBAR_EXTRA                          :      0.233u      0.333s      0.325w     42 calls
INIT GUESS                          :      4.583u      1.450s      7.995w     42 calls
SIGMA ALL                           :     68.567u     25.767s     56.777w    588 calls
sigmaSS                             :      0.933u      0.233s      0.714w    588 calls
sigmaSD                             :      2.917u      1.967s      3.135w    588 calls
FSD                                 :      0.917u      0.117s      0.666w    588 calls
WamefSD                             :      1.633u      1.550s      1.970w    588 calls
WmnieSD                             :      0.350u      0.283s      0.493w    588 calls
sigmaDS                             :     19.167u      6.117s     15.162w    588 calls
WmaijDS                             :      2.100u      0.550s      1.616w    588 calls
WabejDS                             :      3.483u      2.133s      3.337w    588 calls
WnmjeDS                             :      2.817u      0.700s      2.174w    588 calls
WbmfeDS                             :     10.750u      2.733s      8.027w    588 calls
sigmaDD                             :     45.517u     17.450s     37.759w    588 calls
FDD                                 :      5.900u      1.150s      4.113w    588 calls
WmnijDD                             :      0.167u      0.033s      0.175w    588 calls
WabefDD                             :     22.450u     14.183s     22.169w    588 calls
WmbejDD                             :      6.967u      0.333s      4.351w    588 calls
WmnefDD                             :     10.017u      1.750s      6.938w    588 calls
BUILD G                             :      1.867u      0.500s      1.546w    630 calls
CALC RES                            :      2.900u      4.100s      4.125w    630 calls
RESTART                             :      0.483u      0.617s      0.660w     84 calls

--------------------------------------------------------------------------------------
Total PK formation time             :     50.633u      0.483s     30.766w     84 calls
| Libint2ERI::Libint2ERI            :      3.483u      0.383s      2.350w    168 calls
HF: Form core H                     :      0.550u      0.017s      1.329w     84 calls
HF: Form S/X                        :      0.133u      0.000s      0.071w     84 calls
HF: Guess                           :     15.050u      0.067s      9.118w     84 calls
| SAD Guess                         :     14.650u      0.050s      8.880w     84 calls
HF: Form G                          :      7.533u      0.033s      4.726w   1260 calls
| JK: D                             :      0.000u      0.000s      0.018w   1260 calls
| JK: USO2AO                        :      0.433u      0.000s      0.185w   1260 calls
| JK: JK                            :      6.733u      0.033s      4.245w   1260 calls
| | PK computes JK                  :      6.733u      0.033s      4.221w   1260 calls
| JK: AO2USO                        :      0.183u      0.000s      0.185w   1260 calls
HF: Form F                          :      0.333u      0.000s      0.168w   1260 calls
HF: Form D                          :      0.033u      0.000s      0.038w   1260 calls
HF: DIIS                            :      9.117u      0.317s      7.071w   1176 calls
HF: Form C                          :      2.333u      0.017s      1.521w   1176 calls
Libint2ERI::Libint2ERI              :      1.817u      0.267s      1.207w     84 calls
ccenergy                            :    299.867u    154.767s   1116.283w     84 calls
| F build                           :     41.267u      7.950s     29.838w   1512 calls
| Wmbej build                       :     52.667u     20.200s     43.915w   1512 calls
| | C->Wmbej                        :      1.917u      1.250s      2.101w   1512 calls
| | F->Wmbej                        :     20.283u     12.517s     19.665w   1512 calls
| | E->Wmbej                        :      7.267u      3.983s      6.614w   1512 calls
| | X->Wmbej                        :     21.650u      1.750s     14.215w   1512 calls
| Z                                 :     12.183u      6.550s     11.051w   1512 calls
| T2 Build                          :    120.933u     65.383s    111.798w   1512 calls
| | BT2                             :     41.533u     28.400s     41.948w   1512 calls
| | FT2                             :     15.817u      8.533s     14.373w   1512 calls
| | WmbejT2                         :     21.167u     11.083s     19.468w   1512 calls
| | CT2                             :     12.767u     11.233s     14.465w   1512 calls
cchbar                              :     21.633u     28.800s     60.432w     42 calls
cceom                               :     84.083u     38.683s    113.028w     42 calls
| HBAR_EXTRA                        :      0.233u      0.333s      0.325w     42 calls
| INIT GUESS                        :      4.583u      1.450s      7.995w     42 calls
| SIGMA ALL                         :     68.567u     25.767s     56.777w    588 calls
| | sigmaSS                         :      0.933u      0.233s      0.714w    588 calls
| | sigmaSD                         :      2.917u      1.967s      3.135w    588 calls
| | | FSD                           :      0.917u      0.117s      0.666w    588 calls
| | | WamefSD                       :      1.633u      1.550s      1.970w    588 calls
| | | WmnieSD                       :      0.350u      0.283s      0.493w    588 calls
| | sigmaDS                         :     19.167u      6.117s     15.162w    588 calls
| | | WmaijDS                       :      2.100u      0.550s      1.616w    588 calls
| | | WabejDS                       :      3.483u      2.133s      3.337w    588 calls
| | | WnmjeDS                       :      2.817u      0.700s      2.174w    588 calls
| | | WbmfeDS                       :     10.750u      2.733s      8.027w    588 calls
| | sigmaDD                         :     45.517u     17.450s     37.759w    588 calls
| | | FDD                           :      5.900u      1.150s      4.113w    588 calls
| | | WmnijDD                       :      0.167u      0.033s      0.175w    588 calls
| | | WabefDD                       :     22.450u     14.183s     22.169w    588 calls
| | | WmbejDD                       :      6.967u      0.333s      4.351w    588 calls
| | | WmnefDD                       :     10.017u      1.750s      6.938w    588 calls
| BUILD G                           :      1.867u      0.500s      1.546w    630 calls
| CALC RES                          :      2.900u      4.100s      4.125w    630 calls
| RESTART                           :      0.483u      0.617s      0.660w     84 calls

**************************************************************************************
