
 Primary working directories    : /scratch/mdavis/molpro_step_2022-08-17_10_18_40/molpro.rvTqPvc2KG
 Secondary working directories  : /scratch/mdavis/molpro_step_2022-08-17_10_18_40/molpro.rvTqPvc2KG
 Wavefunction directory         : /home/mdavis/f12eom_optimizer/f12eom_optimizer/./
 Main file repository           : /scratch/mdavis/molpro_step_2022-08-17_10_18_40/molpro.rvTqPvc2KG/

 id        : olemiss

 Nodes     nprocs
 node2        1

 Using customized tuning parameters: mindgm=1; mindgv=20; mindgc=4; mindgr=1; noblas=0; minvec=7
 default implementation of scratch files=df  


 Variables initialized (945), CPU time= 0.00 sec
 ***,H2CO_b1 CCSD(T)-F12 sto-3g
     memory, 2000.0, m;
     gthresh,energy=1.d-12,zero=1.d-22,oneint=1.d-22,twoint=1.d-22;
     gthresh,optgrad=1.d-8,optstep=1.d-8;
     nocompress;
     bohr;
     geometry={
  N 0.0049918503 0.0100000000 -0.0729517864
  H 0.9372476947 0.0000000000 0.3147300629
  H -0.4685672217 0.8117053137 0.3147763094
  H -0.4685672217 -0.8117053137 0.3147763094
          }
 
     set,charge=0
     set,spin=0
     basis=sto-3g
                                                                                 !basis=aug-cc-pvtz
     hf,maxit=500;wf,charge=0,spin=0;accu,20;
     ee(1)=energy(1)
                                                                           !ccsd,maxit=250;wf,charge=0,spin=0;orbital,IGNORE_ERROR;
                                                                                 !;
                                                                                 !e(1)=energy(2)-energy(1)
                                                                                 !basis=cc-pvtz-f12
                                                                                 !hf,maxit=500;wf,charge=0,spin=0;accu,20;
                                                                    !ccsd(t)-f12,maxit=250;wf,charge=0,spin=0;orbital,IGNORE_ERROR;
                                                                                 !ebase(1)=energy(2)
                                                                                 !ee(1)=e(1)+ebase(1)
     SHOW[f18.12],ee(1)
 Commands  initialized (802), CPU time= 0.01 sec, 659 directives.
 Default parameters read. Elapsed time= 0.07 sec

 Checking input...
 Passed
1


                                         ***  PROGRAM SYSTEM MOLPRO  ***
                                       Copyright, TTI GmbH Stuttgart, 2015
                                    Version 2020.1 linked Oct  6 2020 12:04:11


 **********************************************************************************************************************************
 LABEL *   H2CO_b1 CCSD(T)-F12 sto-3g                                                    
  64 bit serial version                                                                  DATE: 17-Aug-22          TIME: 10:18:41  
 **********************************************************************************************************************************

 SHA1:             8c27446f6450a7499e38f603e13c65f775101d37
 **********************************************************************************************************************************

 Memory per process:      2000 MW
 Total memory per node:   2000 MW

 GA preallocation disabled
 GA check disabled

 Variable memory set to 2000.0 MW


 THRESHOLDS:

 ZERO    =  1.00D-22  ONEINT  =  1.00D-22  TWOINT  =  1.00D-22  PREFAC  =  1.00D-14  XXXXXX  =  1.00D-09  EORDER  =  1.00D-04
 ENERGY  =  1.00D-12  ETEST   =  0.00D+00  EDENS   =  0.00D+00  THRDEDEF=  1.00D-06  GRADIENT=  1.00D-05  STEP    =  1.00D-03
 ORBITAL =  1.00D-05  CIVEC   =  1.00D-05  COEFF   =  1.00D-04  PRINTCI =  5.00D-02  PUNCHCI =  9.90D+01  OPTGRAD =  3.00D-04
 OPTENERG=  1.00D-06  OPTSTEP =  3.00D-04  THRGRAD =  1.00D-10  COMPRESS=  1.00D-11  VARMIN  =  1.00D-07  VARMAX  =  1.00D-03
 THRDOUB =  0.00D+00  THRDIV  =  1.00D-05  THRRED  =  1.00D-07  THRPSP  =  1.00D+00  THRDC   =  1.00D-10  THRCS   =  1.00D-10
 THRNRM  =  1.00D-08  THREQ   =  0.00D+00  THRDE   =  1.00D+00  THRREF  =  1.00D-05  SPARFAC =  1.00D+00  THRDLP  =  1.00D-07
 THRDIA  =  1.00D-10  THRDLS  =  1.00D-07  THRGPS  =  0.00D+00  THRKEX  =  0.00D+00  THRDIS  =  2.00D-01  THRVAR  =  1.00D-10
 THRLOC  =  1.00D-06  THRGAP  =  1.00D-06  THRLOCT = -1.00D+00  THRGAPT = -1.00D+00  THRORB  =  1.00D-06  THRMLTP =  0.00D+00
 THRCPQCI=  1.00D-10  KEXTA   =  0.00D+00  THRCOARS=  0.00D+00  SYMTOL  =  1.00D-06  GRADTOL =  1.00D-06  THROVL  =  1.00D-08
 THRORTH =  1.00D-08  GRID    =  1.00D-06  GRIDMAX =  1.00D-03  DTMAX   =  0.00D+00  THROCCDE=  1.00D-01  THROCCDE=  1.00D-01
 THRPRINT=  2.50D-01


 THRESHOLDS:

 ZERO    =  1.00D-22  ONEINT  =  1.00D-22  TWOINT  =  1.00D-22  PREFAC  =  1.00D-14  XXXXXX  =  1.00D-09  EORDER  =  1.00D-04
 ENERGY  =  1.00D-12  ETEST   =  0.00D+00  EDENS   =  0.00D+00  THRDEDEF=  1.00D-06  GRADIENT=  1.00D-05  STEP    =  1.00D-03
 ORBITAL =  1.00D-05  CIVEC   =  1.00D-05  COEFF   =  1.00D-04  PRINTCI =  5.00D-02  PUNCHCI =  9.90D+01  OPTGRAD =  1.00D-08
 OPTENERG=  1.00D-06  OPTSTEP =  1.00D-08  THRGRAD =  1.00D-10  COMPRESS=  1.00D-11  VARMIN  =  1.00D-07  VARMAX  =  1.00D-03
 THRDOUB =  0.00D+00  THRDIV  =  1.00D-05  THRRED  =  1.00D-07  THRPSP  =  1.00D+00  THRDC   =  1.00D-10  THRCS   =  1.00D-10
 THRNRM  =  1.00D-08  THREQ   =  0.00D+00  THRDE   =  1.00D+00  THRREF  =  1.00D-05  SPARFAC =  1.00D+00  THRDLP  =  1.00D-07
 THRDIA  =  1.00D-10  THRDLS  =  1.00D-07  THRGPS  =  0.00D+00  THRKEX  =  0.00D+00  THRDIS  =  2.00D-01  THRVAR  =  1.00D-10
 THRLOC  =  1.00D-06  THRGAP  =  1.00D-06  THRLOCT = -1.00D+00  THRGAPT = -1.00D+00  THRORB  =  1.00D-06  THRMLTP =  0.00D+00
 THRCPQCI=  1.00D-10  KEXTA   =  0.00D+00  THRCOARS=  0.00D+00  SYMTOL  =  1.00D-06  GRADTOL =  1.00D-06  THROVL  =  1.00D-08
 THRORTH =  1.00D-08  GRID    =  1.00D-06  GRIDMAX =  1.00D-03  DTMAX   =  0.00D+00  THROCCDE=  1.00D-01  THROCCDE=  1.00D-01
 THRPRINT=  2.50D-01


 Input parameters for SORTINT:

 COMPRESS =    0.000000
 C_FINAL  =    1.000000
 DEBUG    =   -1.000000
 C_SORT1  =    0.000000
 C_SEWARD =    0.000000
 THRESH   =    0.000000
 IO       =  molpro                                                                                                                          
 SPRI     =    0.000000
 ZUNIT=BOHR


 Geometry recognized as XYZ

 SETTING CHARGE         =     0.00000000D+00                                  
 SETTING SPIN           =     0.00000000D+00                                  
 SETTING BASIS          =    STO-3G


 Recomputing integrals since basis changed


 Using spherical harmonics

 Library entry N      S STO-3G               selected for orbital group  1
 Library entry N      P STO-3G               selected for orbital group  1
 Library entry H      S STO-3G               selected for orbital group  2


 PROGRAM * SEWARD (Integral evaluation for generally contracted gaussian basis sets)     Author: Roland Lindh, 1990

 Geometry written to block  1 of record 700


 Point group  C1  



 ATOMIC COORDINATES

 NR  ATOM    CHARGE       X              Y              Z

   1  N       7.00    0.004991850    0.010000000   -0.072951786
   2  H       1.00    0.937247695    0.000000000    0.314730063
   3  H       1.00   -0.468567222    0.811705314    0.314776309
   4  H       1.00   -0.468567222   -0.811705314    0.314776309

 Bond lengths in Bohr (Angstrom)

 1-2  1.009702023  1-3  1.008624152  1-4  1.024593038  2-3  1.623324089  2-4  1.623324089
     ( 0.534311301)     ( 0.533740916)     ( 0.542191286)     ( 0.859026114)     ( 0.859026114)

 3-4  1.623410627
     ( 0.859071908)

 Bond angles

  1-2-3   36.43544042   1-2-4   37.38041935   1-3-2   36.48065429   1-3-4   37.35887192

  1-4-2   36.74687589   1-4-3   36.68019849   2-1-3  107.08390529   2-1-4  105.87270476

  2-3-4   59.99823652   2-4-3   59.99823652   3-1-4  105.96092959   3-2-4   60.00352696

 NUCLEAR CHARGE:                   10
 NUMBER OF PRIMITIVE AOS:          24
 NUMBER OF SYMMETRY AOS:           24
 NUMBER OF CONTRACTIONS:            8   (    8A   )
 NUMBER OF INNER CORE ORBITALS:     0   (    0A   )
 NUMBER OF OUTER CORE ORBITALS:     1   (    1A   )
 NUMBER OF VALENCE ORBITALS:        7   (    7A   )


 NUCLEAR REPULSION ENERGY   22.55289333

 Eigenvalues of metric

         1 0.395E-01 0.854E-01 0.888E-01 0.908E+00 0.103E+01 0.133E+01 0.133E+01 0.319E+01


 Contracted 2-electron integrals neglected if value below      1.0D-22

            579. INTEGRALS WRITTEN OUT IN       1 BLOCKS ON RECORD 1290 OF FILE 1


 NUMBER OF SORTED TWO-ELECTRON INTEGRALS:        666.     BUFFER LENGTH:  32768
 NUMBER OF SEGMENTS:   1  SEGMENT LENGTH:        666      RECORD LENGTH: 524288

 Memory used in sort:       0.56 MW

 SORT1 READ         579. AND WROTE         579. INTEGRALS IN      1 RECORDS. CPU TIME:     0.00 SEC, REAL TIME:     0.01 SEC
 SORT2 READ         579. AND WROTE         666. INTEGRALS IN      1 RECORDS. CPU TIME:     0.00 SEC, REAL TIME:     0.00 SEC

 FILE SIZES:   FILE 1:    30.1 MBYTE,  FILE 4:     4.2 MBYTE,   TOTAL:     34.3 MBYTE

 OPERATOR DM      FOR CENTER  0  COORDINATES:    0.000000    0.000000    0.000000


 **********************************************************************************************************************************
 DATASETS  * FILE   NREC   LENGTH (MB)   RECORD NAMES
              1      19       29.99       500      610      700      900      950      970     1000      129      960     1100   
                                          VAR    BASINP    GEOM    SYMINP    ZMAT    AOBASIS   BASIS     P2S    ABASIS      S 
                                         1400     1410     1200     1210     1080     1600     1650     1300     1700   
                                           T        V       H0       H01     AOSYM     SMH    MOLCAS    ERIS     OPER   

 PROGRAMS   *        TOTAL       INT
 CPU TIMES  *         0.78      0.65
 REAL TIME  *         2.56 SEC
 DISK USED  *        34.59 MB
 **********************************************************************************************************************************


 PROGRAM * RHF-SCF (CLOSED SHELL)       Authors: W. Meyer, H.-J. Werner


 NUMBER OF ELECTRONS:       5+    5-    SPACE SYMMETRY=1    SPIN SYMMETRY: Singlet 
 CONVERGENCE THRESHOLDS:    1.00E-10 (Density)    1.00E-13 (Energy)
 MAX. NUMBER OF ITERATIONS:      500
 INTERPOLATION TYPE:            DIIS
 INTERPOLATION STEPS:              2 (START)      1 (STEP)
 LEVEL SHIFTS:                  0.00 (CLOSED)  0.00 (OPEN) 



 Orbital guess generated from atomic densities. Full valence occupancy:    5

 Molecular orbital dump at record        2100.2

 Initial occupancy:   5

 ITERATION    DDIFF          GRAD             ENERGY        2-EL.EN.            DIPOLE MOMENTS         DIIS   ORB.
    1      0.000D+00      0.000D+00       -53.11045652     73.359444   -0.00983   -0.01986    0.83367    0    start
    2      0.000D+00      0.295D-01       -53.12227430     72.744825   -0.00817   -0.01651    0.73575    1    diag
    3      0.724D-01      0.237D-02       -53.12235187     72.710004   -0.00802   -0.01620    0.72822    2    diag
    4      0.622D-02      0.161D-03       -53.12235226     72.710855   -0.00801   -0.01619    0.72807    3    diag
    5      0.625D-03      0.125D-04       -53.12235227     72.710969   -0.00801   -0.01619    0.72806    4    diag
    6      0.543D-04      0.113D-05       -53.12235227     72.710974   -0.00801   -0.01619    0.72806    5    diag
    7      0.480D-05      0.246D-07       -53.12235227     72.710973   -0.00801   -0.01619    0.72806    6    diag
    8      0.735D-07      0.213D-08       -53.12235227     72.710974   -0.00801   -0.01619    0.72806    7    diag
    9      0.866D-08      0.351D-10       -53.12235227     72.710974   -0.00801   -0.01619    0.72806    7    diag
   10      0.950D-10      0.997D-12       -53.12235227     72.710974   -0.00801   -0.01619    0.72806    0    orth

 Final occupancy:   5

 !RHF STATE  1.1 Energy               -53.122352266834
 Nuclear energy                        22.55289333
 One-electron energy                 -112.03073235
 Two-electron energy                   36.35548676
 Virial quotient                       -0.91443744
 !RHF STATE  1.1 Dipole moment         -0.00801152    -0.01619318     0.72806466
 Dipole moment /Debye                  -0.02036193    -0.04115625     1.85043458

 Orbital energies:

         1.1          2.1          3.1          4.1          5.1          6.1          7.1
    -15.713062    -1.546556    -0.923454    -0.916917    -0.559891     1.240461     1.441836


 HOMO      5.1    -0.559891 =     -15.2354eV
 LUMO      6.1     1.240461 =      33.7547eV
 LUMO-HOMO         1.800352 =      48.9901eV


 **********************************************************************************************************************************
 DATASETS  * FILE   NREC   LENGTH (MB)   RECORD NAMES
              1      19       29.99       500      610      700      900      950      970     1000      129      960     1100   
                                          VAR    BASINP    GEOM    SYMINP    ZMAT    AOBASIS   BASIS     P2S    ABASIS      S 
                                         1400     1410     1200     1210     1080     1600     1650     1300     1700   
                                           T        V       H0       H01     AOSYM     SMH    MOLCAS    ERIS     OPER   

              2       4        2.79       700     1000      520     2100   
                                         GEOM     BASIS   MCVARS     RHF  

 PROGRAMS   *        TOTAL    HF-SCF       INT
 CPU TIMES  *         0.87      0.08      0.65
 REAL TIME  *         2.83 SEC
 DISK USED  *        34.59 MB
 **********************************************************************************************************************************
 SETTING EE(1)          =       -53.12235227  AU                              
 EE(1)            =      -53.122352266834 AU

 HF/STO-3G energy=    -53.122352266834

          HF-SCF
    -53.12235227
 **********************************************************************************************************************************
 Molpro calculation terminated
