
 Primary working directories    : /scratch/mdavis/molpro_step_2022-08-17_10_38_26/molpro.LA2H1yYzDi
 Secondary working directories  : /scratch/mdavis/molpro_step_2022-08-17_10_38_26/molpro.LA2H1yYzDi
 Wavefunction directory         : /home/mdavis/f12eom_optimizer/f12eom_optimizer/./
 Main file repository           : /scratch/mdavis/molpro_step_2022-08-17_10_38_26/molpro.LA2H1yYzDi/

 id        : olemiss

 Nodes     nprocs
 node2        1

 Using customized tuning parameters: mindgm=1; mindgv=20; mindgc=4; mindgr=1; noblas=0; minvec=7
 default implementation of scratch files=df  


 Variables initialized (945), CPU time= 0.01 sec
 ***,H2CO_b1 CCSD(T)-F12 sto-3g
     memory, 2000.0, m;
     gthresh,energy=1.d-12,zero=1.d-22,oneint=1.d-22,twoint=1.d-22;
     gthresh,optgrad=1.d-8,optstep=1.d-8;
     nocompress;
     bohr;
     geometry={
          3
 Fragment 1
     O   0.0000000000   0.0000000000  -0.0673520521
     H   0.0000000000  -0.7986355100   0.5344629711
     H   0.0000000000   0.7986355100   0.5344629711
          }
 
     set,charge=0
     set,spin=0
     basis=sto-3g
                                                                                 !basis=aug-cc-pvtz
     hf,maxit=500;wf,charge=0,spin=0;accu,20;
     ee(1)=energy(1)
                                                                           !ccsd,maxit=250;wf,charge=0,spin=0;orbital,IGNORE_ERROR;
                                                                                 !;
                                                                                 !e(1)=energy(2)-energy(1)
                                                                                 !basis=cc-pvtz-f12
                                                                                 !hf,maxit=500;wf,charge=0,spin=0;accu,20;
                                                                    !ccsd(t)-f12,maxit=250;wf,charge=0,spin=0;orbital,IGNORE_ERROR;
                                                                                 !ebase(1)=energy(2)
                                                                                 !ee(1)=e(1)+ebase(1)
     SHOW[f18.12],ee(1)
 Commands  initialized (802), CPU time= 0.01 sec, 659 directives.
 Default parameters read. Elapsed time= 0.11 sec

 Checking input...
 Passed
1


                                         ***  PROGRAM SYSTEM MOLPRO  ***
                                       Copyright, TTI GmbH Stuttgart, 2015
                                    Version 2020.1 linked Oct  6 2020 12:04:11


 **********************************************************************************************************************************
 LABEL *   H2CO_b1 CCSD(T)-F12 sto-3g                                                    
  64 bit serial version                                                                  DATE: 17-Aug-22          TIME: 10:38:27  
 **********************************************************************************************************************************

 SHA1:             8c27446f6450a7499e38f603e13c65f775101d37
 **********************************************************************************************************************************

 Memory per process:      2000 MW
 Total memory per node:   2000 MW

 GA preallocation disabled
 GA check disabled

 Variable memory set to 2000.0 MW


 THRESHOLDS:

 ZERO    =  1.00D-22  ONEINT  =  1.00D-22  TWOINT  =  1.00D-22  PREFAC  =  1.00D-14  XXXXXX  =  1.00D-09  EORDER  =  1.00D-04
 ENERGY  =  1.00D-12  ETEST   =  0.00D+00  EDENS   =  0.00D+00  THRDEDEF=  1.00D-06  GRADIENT=  1.00D-05  STEP    =  1.00D-03
 ORBITAL =  1.00D-05  CIVEC   =  1.00D-05  COEFF   =  1.00D-04  PRINTCI =  5.00D-02  PUNCHCI =  9.90D+01  OPTGRAD =  3.00D-04
 OPTENERG=  1.00D-06  OPTSTEP =  3.00D-04  THRGRAD =  1.00D-10  COMPRESS=  1.00D-11  VARMIN  =  1.00D-07  VARMAX  =  1.00D-03
 THRDOUB =  0.00D+00  THRDIV  =  1.00D-05  THRRED  =  1.00D-07  THRPSP  =  1.00D+00  THRDC   =  1.00D-10  THRCS   =  1.00D-10
 THRNRM  =  1.00D-08  THREQ   =  0.00D+00  THRDE   =  1.00D+00  THRREF  =  1.00D-05  SPARFAC =  1.00D+00  THRDLP  =  1.00D-07
 THRDIA  =  1.00D-10  THRDLS  =  1.00D-07  THRGPS  =  0.00D+00  THRKEX  =  0.00D+00  THRDIS  =  2.00D-01  THRVAR  =  1.00D-10
 THRLOC  =  1.00D-06  THRGAP  =  1.00D-06  THRLOCT = -1.00D+00  THRGAPT = -1.00D+00  THRORB  =  1.00D-06  THRMLTP =  0.00D+00
 THRCPQCI=  1.00D-10  KEXTA   =  0.00D+00  THRCOARS=  0.00D+00  SYMTOL  =  1.00D-06  GRADTOL =  1.00D-06  THROVL  =  1.00D-08
 THRORTH =  1.00D-08  GRID    =  1.00D-06  GRIDMAX =  1.00D-03  DTMAX   =  0.00D+00  THROCCDE=  1.00D-01  THROCCDE=  1.00D-01
 THRPRINT=  2.50D-01


 THRESHOLDS:

 ZERO    =  1.00D-22  ONEINT  =  1.00D-22  TWOINT  =  1.00D-22  PREFAC  =  1.00D-14  XXXXXX  =  1.00D-09  EORDER  =  1.00D-04
 ENERGY  =  1.00D-12  ETEST   =  0.00D+00  EDENS   =  0.00D+00  THRDEDEF=  1.00D-06  GRADIENT=  1.00D-05  STEP    =  1.00D-03
 ORBITAL =  1.00D-05  CIVEC   =  1.00D-05  COEFF   =  1.00D-04  PRINTCI =  5.00D-02  PUNCHCI =  9.90D+01  OPTGRAD =  1.00D-08
 OPTENERG=  1.00D-06  OPTSTEP =  1.00D-08  THRGRAD =  1.00D-10  COMPRESS=  1.00D-11  VARMIN  =  1.00D-07  VARMAX  =  1.00D-03
 THRDOUB =  0.00D+00  THRDIV  =  1.00D-05  THRRED  =  1.00D-07  THRPSP  =  1.00D+00  THRDC   =  1.00D-10  THRCS   =  1.00D-10
 THRNRM  =  1.00D-08  THREQ   =  0.00D+00  THRDE   =  1.00D+00  THRREF  =  1.00D-05  SPARFAC =  1.00D+00  THRDLP  =  1.00D-07
 THRDIA  =  1.00D-10  THRDLS  =  1.00D-07  THRGPS  =  0.00D+00  THRKEX  =  0.00D+00  THRDIS  =  2.00D-01  THRVAR  =  1.00D-10
 THRLOC  =  1.00D-06  THRGAP  =  1.00D-06  THRLOCT = -1.00D+00  THRGAPT = -1.00D+00  THRORB  =  1.00D-06  THRMLTP =  0.00D+00
 THRCPQCI=  1.00D-10  KEXTA   =  0.00D+00  THRCOARS=  0.00D+00  SYMTOL  =  1.00D-06  GRADTOL =  1.00D-06  THROVL  =  1.00D-08
 THRORTH =  1.00D-08  GRID    =  1.00D-06  GRIDMAX =  1.00D-03  DTMAX   =  0.00D+00  THROCCDE=  1.00D-01  THROCCDE=  1.00D-01
 THRPRINT=  2.50D-01


 Input parameters for SORTINT:

 COMPRESS =    0.000000
 C_FINAL  =    1.000000
 DEBUG    =   -1.000000
 C_SORT1  =    0.000000
 C_SEWARD =    0.000000
 THRESH   =    0.000000
 IO       =  molpro                                                                                                                          
 SPRI     =    0.000000
 ZUNIT=BOHR


 Geometry recognized as XYZ

 SETTING CHARGE         =     0.00000000D+00                                  
 SETTING SPIN           =     0.00000000D+00                                  
 SETTING BASIS          =    STO-3G


 Recomputing integrals since basis changed


 Using spherical harmonics

 Library entry O      S STO-3G               selected for orbital group  1
 Library entry O      P STO-3G               selected for orbital group  1
 Library entry H      S STO-3G               selected for orbital group  2


 PROGRAM * SEWARD (Integral evaluation for generally contracted gaussian basis sets)     Author: Roland Lindh, 1990

 Geometry written to block  1 of record 700


 Point group  C2v 



 ATOMIC COORDINATES

 NR  ATOM    CHARGE       X              Y              Z

   1  O       8.00    0.000000000    0.000000000   -0.067352052
   2  H       1.00    0.000000000   -0.798635510    0.534462971
   3  H       1.00    0.000000000    0.798635510    0.534462971

 Bond lengths in Bohr (Angstrom)

 1-2  1.000000000  1-3  1.000000000  2-3  1.597271020
     ( 0.529177211)     ( 0.529177211)     ( 0.845239423)

 Bond angles

  1-2-3   37.00000000   1-3-2   37.00000000   2-1-3  105.99999999

 NUCLEAR CHARGE:                   10
 NUMBER OF PRIMITIVE AOS:          21
 NUMBER OF SYMMETRY AOS:           21
 NUMBER OF CONTRACTIONS:            7   (    4A1  +    1B1  +    2B2  +    0A2  )
 NUMBER OF INNER CORE ORBITALS:     0   (    0A1  +    0B1  +    0B2  +    0A2  )
 NUMBER OF OUTER CORE ORBITALS:     1   (    1A1  +    0B1  +    0B2  +    0A2  )
 NUMBER OF VALENCE ORBITALS:        6   (    3A1  +    1B1  +    2B2  +    0A2  )


 NUCLEAR REPULSION ENERGY   16.62606783

 Eigenvalues of metric

         1 0.938E-01 0.892E+00 0.105E+01 0.255E+01
         2 0.100E+01
         3 0.114E+00 0.129E+01


 Contracted 2-electron integrals neglected if value below      1.0D-22

            138. INTEGRALS WRITTEN OUT IN       1 BLOCKS ON RECORD 1290 OF FILE 1


 NUMBER OF SORTED TWO-ELECTRON INTEGRALS:        191.     BUFFER LENGTH:  32768
 NUMBER OF SEGMENTS:   1  SEGMENT LENGTH:        191      RECORD LENGTH: 524288

 Memory used in sort:       0.56 MW

 SORT1 READ         138. AND WROTE         171. INTEGRALS IN      1 RECORDS. CPU TIME:     0.00 SEC, REAL TIME:     0.00 SEC
 SORT2 READ         171. AND WROTE         191. INTEGRALS IN      1 RECORDS. CPU TIME:     0.00 SEC, REAL TIME:     0.00 SEC

 FILE SIZES:   FILE 1:    30.0 MBYTE,  FILE 4:     4.2 MBYTE,   TOTAL:     34.3 MBYTE

 OPERATOR DM      FOR CENTER  0  COORDINATES:    0.000000    0.000000    0.000000


 **********************************************************************************************************************************
 DATASETS  * FILE   NREC   LENGTH (MB)   RECORD NAMES
              1      19       29.97       500      610      700      900      950      970     1000      129      960     1100   
                                          VAR    BASINP    GEOM    SYMINP    ZMAT    AOBASIS   BASIS     P2S    ABASIS      S 
                                         1400     1410     1200     1210     1080     1600     1650     1300     1700   
                                           T        V       H0       H01     AOSYM     SMH    MOLCAS    ERIS     OPER   

 PROGRAMS   *        TOTAL       INT
 CPU TIMES  *         0.99      0.85
 REAL TIME  *         3.15 SEC
 DISK USED  *        34.55 MB
 **********************************************************************************************************************************


 PROGRAM * RHF-SCF (CLOSED SHELL)       Authors: W. Meyer, H.-J. Werner


 NUMBER OF ELECTRONS:       5+    5-
 CONVERGENCE THRESHOLDS:    1.00E-10 (Density)    1.00E-13 (Energy)
 MAX. NUMBER OF ITERATIONS:      500
 INTERPOLATION TYPE:            DIIS
 INTERPOLATION STEPS:              2 (START)      1 (STEP)
 LEVEL SHIFTS:                  0.00 (CLOSED)  0.00 (OPEN) 



 Orbital guess generated from atomic densities. Full valence occupancy:    4   1   2   0

 Molecular orbital dump at record        2100.2

 Initial occupancy:   3   1   1

 ITERATION    DDIFF          GRAD             ENERGY        2-EL.EN.            DIPOLE MOMENTS         DIIS   ORB.
    1      0.000D+00      0.000D+00       -73.47321326     84.931504    0.00000    0.00000    0.94000    0    start
    2      0.000D+00      0.801D-01       -73.49571404     83.927149    0.00000    0.00000    0.80520    1    diag
    3      0.124D+00      0.808D-02       -73.49595919     83.854996    0.00000    0.00000    0.79250    2    diag
    4      0.139D-01      0.792D-03       -73.49596155     83.855858    0.00000    0.00000    0.79206    3    diag
    5      0.156D-02      0.383D-04       -73.49596156     83.856020    0.00000    0.00000    0.79206    4    diag
    6      0.762D-04      0.308D-05       -73.49596156     83.856028    0.00000    0.00000    0.79206    5    diag
    7      0.114D-04      0.304D-07       -73.49596156     83.856028    0.00000    0.00000    0.79206    6    diag
    8      0.663D-07      0.185D-11       -73.49596156     83.856028    0.00000    0.00000    0.79206    4    diag
    9      0.273D-11      0.192D-13       -73.49596156     83.856028    0.00000    0.00000    0.79206    0    orth

 Final occupancy:   3   1   1

 !RHF STATE  1.1 Energy               -73.495961555494
 Nuclear energy                        16.62606783
 One-electron energy                 -132.05004330
 Two-electron energy                   41.92801392
 Virial quotient                       -0.95634697
 !RHF STATE  1.1 Dipole moment          0.00000000     0.00000000     0.79206410
 Dipole moment /Debye                   0.00000000     0.00000000     2.01309427

 Orbital energies:

         1.1          2.1          3.1          4.1
    -20.417830    -1.652222    -0.568110     0.996272

         1.2
     -0.529674

         1.3          2.3
     -0.929172     1.452513


 HOMO      1.2    -0.529674 =     -14.4132eV
 LUMO      4.1     0.996272 =      27.1100eV
 LUMO-HOMO         1.525946 =      41.5231eV


 **********************************************************************************************************************************
 DATASETS  * FILE   NREC   LENGTH (MB)   RECORD NAMES
              1      19       29.97       500      610      700      900      950      970     1000      129      960     1100   
                                          VAR    BASINP    GEOM    SYMINP    ZMAT    AOBASIS   BASIS     P2S    ABASIS      S 
                                         1400     1410     1200     1210     1080     1600     1650     1300     1700   
                                           T        V       H0       H01     AOSYM     SMH    MOLCAS    ERIS     OPER   

              2       4        2.78       700     1000      520     2100   
                                         GEOM     BASIS   MCVARS     RHF  

 PROGRAMS   *        TOTAL    HF-SCF       INT
 CPU TIMES  *         1.11      0.12      0.85
 REAL TIME  *         3.30 SEC
 DISK USED  *        34.55 MB
 **********************************************************************************************************************************
 SETTING EE(1)          =       -73.49596156  AU                              
 EE(1)            =      -73.495961555494 AU

 HF/STO-3G energy=    -73.495961555494

          HF-SCF
    -73.49596156
 **********************************************************************************************************************************
 Molpro calculation terminated
