
 Primary working directories    : /scratch/mdavis/molpro_step_2022-08-19_10_23_57/molpro.uIb9K4vplU
 Secondary working directories  : /scratch/mdavis/molpro_step_2022-08-19_10_23_57/molpro.uIb9K4vplU
 Wavefunction directory         : /home/mdavis/f12eom_optimizer/tests/slurm/test_tz/./
 Main file repository           : /scratch/mdavis/molpro_step_2022-08-19_10_23_57/molpro.uIb9K4vplU/

 id        : olemiss

 Nodes     nprocs
 node7        4

 Using customized tuning parameters: mindgm=1; mindgv=20; mindgc=4; mindgr=1; noblas=0; minvec=7
 default implementation of scratch files=sf  


 Variables initialized (945), CPU time= 0.00 sec
 ***,part of geometry opt run
 memory, 1950.0, m;
 gthresh,energy=1.d-12,zero=1.d-22,oneint=1.d-22,twoint=1.d-22;
 gthresh,optgrad=1.d-8,optstep=1.d-8;
 nocompress;
 ang;
 geometry={
      3
 Fragment 1
     H  -0.7632044750   1.4579219460   0.0000000000
     C   0.0986243160   0.7533057638   0.0000000000
     F  -0.0218078969  -0.5531517206   0.0000000000
      }
 
 set,charge=0
 set,spin=0
 basis=vdz-f12
 hf,maxit=500;wf,charge=0,spin=0;accu,20;
 ccsd(t)-f12,maxit=250;wf,charge=0,spin=0;orbital,IGNORE_ERROR;
 ee(1)=energy(2)
 forces,varsav
 SHOW[f18.12],ee(1)
 SHOW[f18.12],GRADX
 SHOW[f18.12],GRADY
 SHOW[f18.12],GRADZ
 Commands  initialized (802), CPU time= 0.02 sec, 659 directives.
 Default parameters read. Elapsed time= 0.43 sec

 Checking input...
 Passed
1


                                         ***  PROGRAM SYSTEM MOLPRO  ***
                                       Copyright, TTI GmbH Stuttgart, 2015
                                    Version 2020.1 linked Oct  6 2020 12:04:11


 **********************************************************************************************************************************
 LABEL *   part of geometry opt run                                                      
  64 bit mpp version                                                                     DATE: 19-Aug-22          TIME: 10:24:03  
 **********************************************************************************************************************************

 SHA1:             8c27446f6450a7499e38f603e13c65f775101d37
 **********************************************************************************************************************************

 Memory per process:      1950 MW
 Total memory per node:   7800 MW

 GA preallocation disabled
 GA check disabled

 Variable memory set to 1950.0 MW


 THRESHOLDS:

 ZERO    =  1.00D-22  ONEINT  =  1.00D-22  TWOINT  =  1.00D-22  PREFAC  =  1.00D-14  XXXXXX  =  1.00D-09  EORDER  =  1.00D-04
 ENERGY  =  1.00D-12  ETEST   =  0.00D+00  EDENS   =  0.00D+00  THRDEDEF=  1.00D-06  GRADIENT=  1.00D-05  STEP    =  1.00D-03
 ORBITAL =  1.00D-05  CIVEC   =  1.00D-05  COEFF   =  1.00D-04  PRINTCI =  5.00D-02  PUNCHCI =  9.90D+01  OPTGRAD =  3.00D-04
 OPTENERG=  1.00D-06  OPTSTEP =  3.00D-04  THRGRAD =  1.00D-10  COMPRESS=  1.00D-11  VARMIN  =  1.00D-07  VARMAX  =  1.00D-03
 THRDOUB =  0.00D+00  THRDIV  =  1.00D-05  THRRED  =  1.00D-07  THRPSP  =  1.00D+00  THRDC   =  1.00D-10  THRCS   =  1.00D-10
 THRNRM  =  1.00D-08  THREQ   =  0.00D+00  THRDE   =  1.00D+00  THRREF  =  1.00D-05  SPARFAC =  1.00D+00  THRDLP  =  1.00D-07
 THRDIA  =  1.00D-10  THRDLS  =  1.00D-07  THRGPS  =  0.00D+00  THRKEX  =  0.00D+00  THRDIS  =  2.00D-01  THRVAR  =  1.00D-10
 THRLOC  =  1.00D-06  THRGAP  =  1.00D-06  THRLOCT = -1.00D+00  THRGAPT = -1.00D+00  THRORB  =  1.00D-06  THRMLTP =  0.00D+00
 THRCPQCI=  1.00D-10  KEXTA   =  0.00D+00  THRCOARS=  0.00D+00  SYMTOL  =  1.00D-06  GRADTOL =  1.00D-06  THROVL  =  1.00D-08
 THRORTH =  1.00D-08  GRID    =  1.00D-06  GRIDMAX =  1.00D-03  DTMAX   =  0.00D+00  THROCCDE=  1.00D-01  THROCCDE=  1.00D-01
 THRPRINT=  2.50D-01


 THRESHOLDS:

 ZERO    =  1.00D-22  ONEINT  =  1.00D-22  TWOINT  =  1.00D-22  PREFAC  =  1.00D-14  XXXXXX  =  1.00D-09  EORDER  =  1.00D-04
 ENERGY  =  1.00D-12  ETEST   =  0.00D+00  EDENS   =  0.00D+00  THRDEDEF=  1.00D-06  GRADIENT=  1.00D-05  STEP    =  1.00D-03
 ORBITAL =  1.00D-05  CIVEC   =  1.00D-05  COEFF   =  1.00D-04  PRINTCI =  5.00D-02  PUNCHCI =  9.90D+01  OPTGRAD =  1.00D-08
 OPTENERG=  1.00D-06  OPTSTEP =  1.00D-08  THRGRAD =  1.00D-10  COMPRESS=  1.00D-11  VARMIN  =  1.00D-07  VARMAX  =  1.00D-03
 THRDOUB =  0.00D+00  THRDIV  =  1.00D-05  THRRED  =  1.00D-07  THRPSP  =  1.00D+00  THRDC   =  1.00D-10  THRCS   =  1.00D-10
 THRNRM  =  1.00D-08  THREQ   =  0.00D+00  THRDE   =  1.00D+00  THRREF  =  1.00D-05  SPARFAC =  1.00D+00  THRDLP  =  1.00D-07
 THRDIA  =  1.00D-10  THRDLS  =  1.00D-07  THRGPS  =  0.00D+00  THRKEX  =  0.00D+00  THRDIS  =  2.00D-01  THRVAR  =  1.00D-10
 THRLOC  =  1.00D-06  THRGAP  =  1.00D-06  THRLOCT = -1.00D+00  THRGAPT = -1.00D+00  THRORB  =  1.00D-06  THRMLTP =  0.00D+00
 THRCPQCI=  1.00D-10  KEXTA   =  0.00D+00  THRCOARS=  0.00D+00  SYMTOL  =  1.00D-06  GRADTOL =  1.00D-06  THROVL  =  1.00D-08
 THRORTH =  1.00D-08  GRID    =  1.00D-06  GRIDMAX =  1.00D-03  DTMAX   =  0.00D+00  THROCCDE=  1.00D-01  THROCCDE=  1.00D-01
 THRPRINT=  2.50D-01


 Input parameters for SORTINT:

 COMPRESS =    0.000000
 C_FINAL  =    1.000000
 DEBUG    =   -1.000000
 C_SORT1  =    0.000000
 C_SEWARD =    0.000000
 THRESH   =    0.000000
 IO       =  eaf                                                                                                                             
 SPRI     =    0.000000
 ZUNIT=ANG


 Geometry recognized as XYZ

 SETTING CHARGE         =     0.00000000D+00                                  
 SETTING SPIN           =     0.00000000D+00                                  
 SETTING BASIS          =    VDZ-F12


 Recomputing integrals since basis changed


 Using spherical harmonics

 Library entry H      S cc-pVDZ-F12          selected for orbital group  1
 Library entry H      P cc-pVDZ-F12          selected for orbital group  1
 Library entry C      S cc-pVDZ-F12          selected for orbital group  2
 Library entry C      P cc-pVDZ-F12          selected for orbital group  2
 Library entry C      D cc-pVDZ-F12          selected for orbital group  2
 Library entry F      S cc-pVDZ-F12          selected for orbital group  3
 Library entry F      P cc-pVDZ-F12          selected for orbital group  3
 Library entry F      D cc-pVDZ-F12          selected for orbital group  3


 PROGRAM * SEWARD (Integral evaluation for generally contracted gaussian basis sets)     Author: Roland Lindh, 1990

 Geometry written to block  1 of record 700


 Point group  Cs  



 ATOMIC COORDINATES

 NR  ATOM    CHARGE       X              Y              Z

   1  H       1.00   -1.442247435    2.755073189    0.000000000
   2  C       6.00    0.186372946    1.423541582    0.000000000
   3  F       9.00   -0.041210952   -1.045305257    0.000000000

 Bond lengths in Bohr (Angstrom)

 1-2  2.103658900  2-3  2.479314249
     ( 1.113208349)     ( 1.311996599)

 Bond angles

  1-2-3  124.00206330

 NUCLEAR CHARGE:                   16
 NUMBER OF PRIMITIVE AOS:          93
 NUMBER OF SYMMETRY AOS:           89
 NUMBER OF CONTRACTIONS:           69   (   49A'  +   20A"  )
 NUMBER OF INNER CORE ORBITALS:     0   (    0A'  +    0A"  )
 NUMBER OF OUTER CORE ORBITALS:     2   (    2A'  +    0A"  )
 NUMBER OF VALENCE ORBITALS:        9   (    7A'  +    2A"  )


 NUCLEAR REPULSION ENERGY   26.85438957

 Eigenvalues of metric

         1 0.169E-02 0.309E-02 0.327E-02 0.344E-02 0.360E-02 0.468E-02 0.470E-02 0.905E-02
         2 0.330E-02 0.468E-02 0.806E-01 0.944E-01 0.137E+00 0.164E+00 0.250E+00 0.384E+00


 Contracted 2-electron integrals neglected if value below      1.0D-22

 Implementation of unsorted integral record: sf  

 Implementation of unsorted integral record: sf  

        1426049. INTEGRALS WRITTEN OUT IN     350 BLOCKS ON RECORD 1290 OF FILE 1


 NUMBER OF SORTED TWO-ELECTRON INTEGRALS:     384496.     BUFFER LENGTH:  32768
 NUMBER OF SEGMENTS:   1  SEGMENT LENGTH:     384496      RECORD LENGTH: 524288

 Memory used in sort:       0.94 MW

 SORT1 READ     1426049. AND WROTE      362597. INTEGRALS IN      2 RECORDS. CPU TIME:     0.03 SEC, REAL TIME:     0.04 SEC
 SORT2 READ     1455925. AND WROTE     1544830. INTEGRALS IN      4 RECORDS. CPU TIME:     0.03 SEC, REAL TIME:     0.03 SEC

 Node minimum:      384138.  Node maximum:      388531. integrals

 OPERATOR DM      FOR CENTER  0  COORDINATES:    0.000000    0.000000    0.000000


 **********************************************************************************************************************************
 DATASETS  * FILE   NREC   LENGTH (MB)   RECORD NAMES
              1      18       52.96       500      610      700      900      950      970     1000      129      960     1100   
                                          VAR    BASINP    GEOM    SYMINP    ZMAT    AOBASIS   BASIS     P2S    ABASIS      S 
                                         1400     1410     1200     1210     1080     1600     1650     1700   
                                           T        V       H0       H01     AOSYM     SMH    MOLCAS    OPER   

 PROGRAMS   *        TOTAL       INT
 CPU TIMES  *         1.44      1.06
 REAL TIME  *         5.07 SEC
 DISK USED  *        30.40 MB (local),      167.46 MB (total)
 SF USED    *        22.87 MB
 GA USED    *         0.00 MB       (max)       0.00 MB       (current)
 **********************************************************************************************************************************


 PROGRAM * RHF-SCF (CLOSED SHELL)       Authors: W. Meyer, H.-J. Werner


 NUMBER OF ELECTRONS:       8+    8-
 CONVERGENCE THRESHOLDS:    1.00E-10 (Density)    1.00E-13 (Energy)
 MAX. NUMBER OF ITERATIONS:      500
 INTERPOLATION TYPE:            DIIS
 INTERPOLATION STEPS:              2 (START)      1 (STEP)
 LEVEL SHIFTS:                  0.00 (CLOSED)  0.00 (OPEN) 



 Orbital guess generated from atomic densities. Full valence occupancy:    9   2

 Molecular orbital dump at record        2100.2

 Initial occupancy:   7   1

 ITERATION    DDIFF          GRAD             ENERGY        2-EL.EN.            DIPOLE MOMENTS         DIIS   ORB.
    1      0.000D+00      0.000D+00      -137.75782297    156.464991   -0.85346    0.17222    0.00000    0    start
    2      0.000D+00      0.105D-01      -137.78546231    157.493669   -0.73682    0.12700    0.00000    1    diag
    3      0.147D-01      0.393D-02      -137.78886103    157.806870   -0.71900    0.23495    0.00000    2    diag
    4      0.435D-02      0.128D-02      -137.78925586    157.585631   -0.71462    0.22625    0.00000    3    diag
    5      0.123D-02      0.335D-03      -137.78932522    157.652281   -0.71290    0.23700    0.00000    4    diag
    6      0.515D-03      0.923D-04      -137.78933346    157.651229   -0.71193    0.23895    0.00000    5    diag
    7      0.207D-03      0.282D-04      -137.78933419    157.651570   -0.71190    0.23901    0.00000    6    diag
    8      0.704D-04      0.551D-05      -137.78933421    157.651335   -0.71186    0.23893    0.00000    7    diag
    9      0.120D-04      0.104D-05      -137.78933421    157.651364   -0.71187    0.23890    0.00000    8    diag
   10      0.251D-05      0.209D-06      -137.78933421    157.651365   -0.71187    0.23890    0.00000    9    orth
   11      0.580D-06      0.420D-07      -137.78933421    157.651365   -0.71187    0.23890    0.00000    9    diag
   12      0.116D-06      0.769D-08      -137.78933421    157.651365   -0.71187    0.23890    0.00000    9    diag
   13      0.191D-07      0.210D-08      -137.78933421    157.651365   -0.71187    0.23890    0.00000    9    diag
   14      0.570D-08      0.780D-09      -137.78933421    157.651365   -0.71187    0.23890    0.00000    9    diag
   15      0.258D-08      0.226D-09      -137.78933421    157.651365   -0.71187    0.23890    0.00000    9    diag
   16      0.469D-09      0.762D-10      -137.78933421    157.651365   -0.71187    0.23890    0.00000    9    diag
   17      0.168D-09      0.138D-10      -137.78933421    157.651365   -0.71187    0.23890    0.00000    9    diag
   18      0.322D-10      0.317D-11      -137.78933421    157.651365   -0.71187    0.23890    0.00000    9    diag
   19      0.759D-11      0.898D-12      -137.78933421    157.651365   -0.71187    0.23890    0.00000    9    fixocc
   20      0.250D-11      0.193D-12      -137.78933421    157.651365   -0.71187    0.23890    0.00000    0    orth

 Final occupancy:   7   1

 !RHF STATE  1.1 Energy              -137.789334214714
 Nuclear energy                        26.85438957
 One-electron energy                 -243.46940623
 Two-electron energy                   78.82568245
 Virial quotient                       -1.00121342
 !RHF STATE  1.1 Dipole moment         -0.71187435     0.23889911     0.00000000
 Dipole moment /Debye                  -1.80928562     0.60718119     0.00000000

 Orbital energies:

         1.1          2.1          3.1          4.1          5.1          6.1          7.1          8.1          9.1
    -26.367986   -11.368116    -1.683014    -0.924084    -0.766165    -0.701968    -0.379572     0.067599     0.080437

         1.2          2.2          3.2
     -0.718115     0.041940     0.124612


 HOMO      7.1    -0.379572 =     -10.3287eV
 LUMO      2.2     0.041940 =       1.1412eV
 LUMO-HOMO         0.421512 =      11.4699eV


 **********************************************************************************************************************************
 DATASETS  * FILE   NREC   LENGTH (MB)   RECORD NAMES
              1      18       52.97       500      610      700      900      950      970     1000      129      960     1100   
                                          VAR    BASINP    GEOM    SYMINP    ZMAT    AOBASIS   BASIS     P2S    ABASIS      S 
                                         1400     1410     1200     1210     1080     1600     1650     1700   
                                           T        V       H0       H01     AOSYM     SMH    MOLCAS    OPER   

              2       4        2.84       700     1000      520     2100   
                                         GEOM     BASIS   MCVARS     RHF  

 PROGRAMS   *        TOTAL    HF-SCF       INT
 CPU TIMES  *         1.81      0.37      1.06
 REAL TIME  *         5.54 SEC
 DISK USED  *        33.19 MB (local),      178.61 MB (total)
 SF USED    *        22.88 MB
 GA USED    *         0.00 MB       (max)       0.00 MB       (current)
 **********************************************************************************************************************************


 PROGRAM * CCSD (Closed-shell coupled cluster)     Authors: C. Hampel, H.-J. Werner, 1991, M. Deegan, P.J. Knowles, 1992

                                  CCSD-F12 implementation by  H.-J. Werner, 2007

                   Density fitting integral evaluation by F.R. Manby, 2003,2007, G. Knizia, 2010


 Basis set AUG-CC-PVDZ/JKFIT generated.  Number of basis functions:   204 
 Basis set CC-PVDZ-F12/OPTRI generated.  Number of basis functions:   154 
 Basis set AUG-CC-PVDZ/MP2FIT generated. Number of basis functions:   167 

 Convergence thresholds:  THRVAR = 1.00D-16  THRDEN = 1.00D-12

 CCSD(T)     terms to be evaluated (factor= 1.000)


 Number of core orbitals:           2 (   2   0 )
 Number of closed-shell orbitals:   6 (   5   1 )
 Number of external orbitals:      61 (  42  19 )

 Molecular orbitals read from record     2100.2  Type=RHF/CANONICAL (state 1.1)

 MP2-F12 correlation treatment (H.-J. Werner, 2006)
 ==================================================

 Using MP2-F12 with ansatz 3C(FIX)

 Using projected zeroth-order Hamiltonian (+Z)

 FOCKRIB=T FOCKRIC=T FOCKRIP=T CABSP=T CABSA=T CABSK=T CABSF=T GBC=F EBC=F DMAT=T NOFIK=T NOPAO=1 SOLVE=-1  USEPAO=0
 EXCH_A= T EXCH_B= F EXCH_C= F EXCH_P= F

 Geminal basis:    OPTFULL  GEM_TYPE=SLATER  BETA=1.0  NGEM=6

 Optimizing Gaussian exponents for each gem_beta

 Geminal optimization for beta= 1.0000
 Weight function:   m=0, omega= 1.4646

 Augmented Hessian optimization of geminal fit. Trust ratio= 0.40000
 Convergence reached after   2 iterations. Final gradient= 8.66D-16, Step= 4.23D-06, Delta= 1.28D-09

 Alpha:                 0.19532     0.81920     2.85917     9.50073    35.69989   197.79328
 Coeff:                 0.27070     0.30552     0.18297     0.10986     0.06810     0.04224


 Symmetry turned off. Reference energy:       -137.789334214714

 All pairs explicitly correlated. Number of r12-pairs:           21

 Excluding core orbitals from MO domains

 AO(A)-basis ORBITAL           loaded. Number of functions:      69
 RI(R)-basis CC-PVDZ-F12/OPTRI loaded. Number of functions:     154
 DF-basis AUG-CC-PVDZ/JKFIT    loaded. Number of functions:     204

 Screening thresholds:   THRAO=  1.00D-10  THRMO=  1.00D-10  THRPROD=  1.00D-10
                         THRSW=  1.00D-07  THROV=  1.00D-12  THRAOF12= 1.00D-08

 CPU time for Fock operators                      1.35 sec

 Construction of ABS:
 Smallest eigenvalue of S          3.31E-03  (threshold= 1.00E-08)
 Ratio eigmin/eigmax               7.26E-04  (threshold= 1.00E-09)
 Smallest eigenvalue of S kept     3.31E-03  (threshold= 3.31E-03, 0 functions deleted, 154 kept)

 Construction of CABS:
 Smallest eigenvalue of S          1.03E-05  (threshold= 1.00E-08)
 Ratio eigmin/eigmax               1.03E-05  (threshold= 1.00E-09)
 Smallest eigenvalue of S kept     1.03E-05  (threshold= 1.03E-05, 0 functions deleted, 154 kept)

 CPU time for CABS singles                        0.01 sec

 CABS-singles contribution of  -0.00661072 patched into reference energy.
 New reference energy        -137.79594493

 AO(A)-basis ORBITAL           loaded. Number of functions:      69
 RI(R)-basis CC-PVDZ-F12/OPTRI loaded. Number of functions:     154
 DF-basis AUG-CC-PVDZ/MP2FIT   loaded. Number of functions:     167

 Screening thresholds:   THRAO=  1.00D-10  THRMO=  1.00D-10  THRPROD=  1.00D-10
                         THRSW=  1.00D-07  THROV=  1.00D-12  THRAOF12= 1.00D-08

 CPU time for 3-index integral evaluation         0.24 sec
 CPU time for sorting                             0.01 sec
 CPU time for fitting                             0.01 sec ( 2755.4 MFLOP/sec)
 CPU time for tilde quantities                    0.01 sec ( 3435.9 MFLOP/sec)
 CPU time for assembly                            0.01 sec (17652.0 MFLOP/sec)
 CPU time for tranop_f12                          0.02 sec (11794.3 MFLOP/sec)
 CPU time for f12 integrals (total)               0.64 sec, Elapsed time:      0.68 sec
 F12-matrices built in  4 passes.
 F12-matrices built in  4 passes.
 F12-matrices built in  4 passes.
 F12-matrices built in  4 passes.
 FC-matrix built in  4 passes.
 CPU time for f12 matrices (total)                0.01 sec, Elapsed time:      0.02 sec

 Diagonal F12 approximation with fixed coefficients:  TSING= 0.500,  TTRIP= 0.250 (scaled by -1/beta)

 DF-MP2-F12 energy corrections:
 ==============================
 Approx.                                    Singlet             Triplet             Total
 DF-MP2-F12/3*C(DX,FIX)                -0.078146655150     -0.016084336272     -0.094230991421
 DF-MP2-F12/3*C(FIX)                   -0.069071638725     -0.015126389281     -0.084198028006
 DF-MP2-F12/3C(FIX)                    -0.069734051150     -0.015907782305     -0.085641833455

 DF-MP2-F12 correlation energies:
 ================================
 Approx.                                    Singlet             Triplet             Ecorr            Total Energy
 DF-MP2                                -0.223845123555     -0.132073943487     -0.355919067042   -138.151863997974
 DF-MP2-F12/3*C(DX,FIX)                -0.301991778705     -0.148158279759     -0.450150058463   -138.246094989396
 DF-MP2-F12/3*C(FIX)                   -0.292916762280     -0.147200332768     -0.440117095048   -138.236062025981
 DF-MP2-F12/3C(FIX)                    -0.293579174705     -0.147981725792     -0.441560900497   -138.237505831430

 SCS-DF-MP2 energies (F_SING= 1.20000  F_TRIP= 0.62222  F_PARALLEL= 0.33333):
 ============================================================================
 SCS-DF-MP2                            -0.350793490880   -138.146738421813
 SCS-DF-MP2-F12/3*C(DX,FIX)            -0.454577508518   -138.250522439450
 SCS-DF-MP2-F12/3*C(FIX)               -0.443091432903   -138.239036363836
 SCS-DF-MP2-F12/3C(FIX)                -0.444372527917   -138.240317458849

 Symmetry restored.
 Symmetry transformation completed.

 Number of N-1 electron functions:               6
 Number of N-2 electron functions:              21
 Number of singly external CSFs:               229
 Number of doubly external CSFs:             35788
 Total number of CSFs:                       36018

 Pair and operator lists are different

 Length of J-op  integral file:              15.21 MB
 Length of K-op  integral file:              18.52 MB
 Length of 3-ext integral record:             0.00 MB

 Memory could be reduced to 1.16 Mwords without degradation in triples

 Integral transformation finished. Total CPU:   0.06 sec, npass=  1  Memory used:   0.52 MW

 Reference energy:                   -137.79594493

 Adding F12 terms to K(Cij), methodcc=6,  factor= 1.0

 ITER.      SQ.NORM     CORR.ENERGY   TOTAL ENERGY   ENERGY CHANGE        DEN1      VAR(S)    VAR(P)  DIIS     TIME  TIME/IT
   1      1.09302869    -0.36218265  -138.15812758    -0.00615971     0.00561168  0.27D-02  0.23D-02  1  1     2.23     0.04
   2      1.10271222    -0.36292019  -138.15886512    -0.00073753    -0.00920151  0.81D-04  0.56D-03  2  2     2.26     0.04
   3      1.10957670    -0.36383122  -138.15977615    -0.00091103    -0.00254780  0.10D-03  0.11D-03  3  3     2.28     0.04
   4      1.11421146    -0.36409917  -138.16004410    -0.00026795    -0.00144410  0.10D-04  0.37D-04  4  4     2.31     0.04
   5      1.11740581    -0.36420157  -138.16014651    -0.00010241    -0.00049958  0.15D-05  0.85D-05  5  5     2.35     0.04
   6      1.11890832    -0.36421141  -138.16015634    -0.00000984    -0.00010211  0.47D-06  0.14D-05  6  6     2.38     0.04
   7      1.11930095    -0.36422271  -138.16016764    -0.00001130    -0.00003218  0.25D-06  0.20D-06  6  2     2.42     0.04
   8      1.11934792    -0.36422677  -138.16017170    -0.00000406     0.00000738  0.36D-07  0.34D-07  6  1     2.45     0.04
   9      1.11937051    -0.36422813  -138.16017306    -0.00000136    -0.00000332  0.11D-07  0.47D-08  6  3     2.48     0.04
  10      1.11936544    -0.36422907  -138.16017401    -0.00000094     0.00000327  0.14D-08  0.90D-09  6  4     2.51     0.04
  11      1.11936212    -0.36422916  -138.16017409    -0.00000008     0.00000088  0.38D-09  0.12D-09  6  5     2.55     0.04
  12      1.11936049    -0.36422928  -138.16017421    -0.00000012     0.00000065  0.63D-10  0.29D-10  6  6     2.58     0.04
  13      1.11935942    -0.36422927  -138.16017420     0.00000000     0.00000013  0.17D-10  0.78D-11  6  2     2.61     0.04
  14      1.11935855    -0.36422928  -138.16017421    -0.00000001     0.00000012  0.28D-11  0.32D-11  6  1     2.65     0.04
  15      1.11935789    -0.36422928  -138.16017421    -0.00000000     0.00000006  0.39D-12  0.12D-11  6  3     2.69     0.04
  16      1.11935747    -0.36422928  -138.16017421    -0.00000000     0.00000005  0.52D-13  0.41D-12  6  4     2.71     0.04
  17      1.11935719    -0.36422928  -138.16017421     0.00000000     0.00000003  0.37D-13  0.82D-13  6  5     2.75     0.04
  18      1.11935707    -0.36422928  -138.16017421     0.00000000     0.00000001  0.12D-13  0.11D-13  6  6     2.78     0.04
  19      1.11935705    -0.36422928  -138.16017421    -0.00000000     0.00000000  0.42D-14  0.24D-14  6  2     2.81     0.04
  20      1.11935705    -0.36422928  -138.16017421     0.00000000    -0.00000000  0.37D-15  0.45D-15  6  3     2.84     0.04
  21      1.11935704    -0.36422928  -138.16017421    -0.00000000     0.00000000  0.37D-16  0.29D-16  6  1     2.88     0.04
  22      1.11935704    -0.36422928  -138.16017421    -0.00000000    -0.00000000  0.93D-17  0.67D-17  6  4     2.91     0.04
  23      1.11935704    -0.36422928  -138.16017421    -0.00000000     0.00000000  0.14D-17  0.95D-18  6  5     2.94     0.04
  24      1.11935704    -0.36422928  -138.16017421    -0.00000000     0.00000000  0.29D-18  0.28D-18  6  6     2.97     0.04
  25      1.11935704    -0.36422928  -138.16017421    -0.00000000    -0.00000000  0.62D-19  0.10D-18  6  2     3.01     0.04
  26      1.11935704    -0.36422928  -138.16017421    -0.00000000    -0.00000000  0.37D-20  0.32D-19  6  3     3.05     0.04
  27      1.11935704    -0.36422928  -138.16017421     0.00000000    -0.00000000  0.59D-21  0.12D-19  6  1     3.07     0.04
  28      1.11935704    -0.36422928  -138.16017421    -0.00000000    -0.00000000  0.59D-21  0.26D-20  6  5     3.11     0.04

 Norm of t1 vector:      0.08223425      S-energy:    -0.00000000      T1 diagnostic:  0.01678600
                                                                       D1 diagnostic:  0.04884123

 Doubles amplitudes (print threshold =  0.500E-01):

         I         J         SYM. A    SYM. B    A         B      T(IJ, AB)

         5         5         2         2         1         1     -0.06380639
         5         5         2         2         1         2      0.05306181
         5         5         2         2         2         1      0.05306181

 Adding energy correction from Wij-K(Fij), methodcc=6  factor= 1.0

  CCSD correlation energy              -0.364229283052
  MP2-F12 correction (uncoupled)       -0.080879321315
  C*T doubles correction               -0.002664603963
  f12b correction                       0.010236441358


 Total CPU time for triples:      0.10 sec


 RESULTS
 =======

  Reference energy                   -137.789334214714
  F12 singles correction               -0.006610716219

 F12 singles corrections added to reference energy

  New reference energy               -137.795944930933

  F12a singlet correction              -0.068349364117
  F12a triplet correction              -0.015194561160
  F12a total correction                -0.083543925278

 F12a corrections for ansatz F12/3C(FIX) added to CCSD energy

  CCSD-F12a singlet pair energy        -0.313829815453
  CCSD-F12a triplet pair energy        -0.133943392876
  CCSD-F12a correlation energy         -0.447773208330

  Triples (T) contribution             -0.012742331020
  Total correlation energy             -0.460515539349

  CCSD-F12a total energy             -138.243718139262
  CCSD[T]-F12a energy                -138.257582353843
  CCSD-T-F12a energy                 -138.256080809736
 !CCSD(T)-F12a total energy          -138.256460470282

 F12b corrections for ansatz F12/3C(FIX) added to CCSD(T)-F12a energy

  CCSD-F12b singlet pair energy        -0.304568638311
  CCSD-F12b triplet pair energy        -0.132968128660
  CCSD-F12b correlation energy         -0.437536766972

  Triples (T) contribution             -0.012742331020
  Total correlation energy             -0.450279097991

  CCSD-F12b total energy             -138.233481697904
  CCSD[T]-F12b energy                -138.247345912485
  CCSD-T-F12b energy                 -138.245844368378
 !CCSD(T)-F12b total energy          -138.246224028924

 Timing summary (sec):

 STEP                 CPU(USER)    SYS     CPU(TOT)    WALL
 Transformation          0.06      0.01      0.07      0.07
 CCSD iterations         0.98      0.13      1.11      1.21
 Triples                 0.10      0.00      0.10      0.10
 MP2-F12                 2.08      0.08      2.16      2.53
 F12b energy             0.01      0.01      0.02      0.02

 Program statistics:

 Available memory in ccsd:              1949999744
 Min. memory needed in ccsd:                136839
 Max. memory used in ccsd:                  163083
 Max. memory used in cckext:                208330 (29 integral passes)



 **********************************************************************************************************************************
 DATASETS  * FILE   NREC   LENGTH (MB)   RECORD NAMES
              1      19       56.55       500      610      700      900      950      970     1000      129      960     1100   
                                          VAR    BASINP    GEOM    SYMINP    ZMAT    AOBASIS   BASIS     P2S    ABASIS      S 
                                         1400     1410     1200     1210     1080     1600     1650     1700     1380   
                                           T        V       H0       H01     AOSYM     SMH    MOLCAS    OPER     JKOP   

              2       6        2.90       700     1000      520     2100     7360     7350   
                                         GEOM     BASIS   MCVARS     RHF    F12ABS    EF12   

 PROGRAMS   *        TOTAL   CCSD(T)    HF-SCF       INT
 CPU TIMES  *         5.12      3.28      0.37      1.06
 REAL TIME  *         9.58 SEC
 DISK USED  *        40.68 MB (local),      196.41 MB (total)
 SF USED    *        77.19 MB
 GA USED    *         4.87 MB       (max)       0.00 MB       (current)
 **********************************************************************************************************************************
 SETTING EE(1)          =      -138.24622403  AU                              


 Computing numerical gradient using default procedure for command CCSD(T)-F12

 *** Long output written to logfile /home/mdavis/f12eom_optimizer/tests/slurm/test_tz/molpro_step.log ***


 Running default procedure: HF-SCF000  CCSD(T)-F12

 Switching to mppx mode, nproc=  4



 Generated   3 symmetrical displacements
 ifil= 1  impl= 2
 ? Error
 ? Invalid implementation
 ? The problem occurs in truncatew
