
  Memory set to   7.451 GiB by Python driver.
  Threads set to 4 by Python driver.

Scratch directory: /scratch/mdavis/PSI4_2022-08-19_10:38:07.952538582/

         ----------------------------------------------------------
                                   FINDIF
                     R. A. King and Jonathon Misiewicz
         ----------------------------------------------------------

  Using finite-differences of energies to determine gradients.
    Generating geometries for use with 3-point formula.
    Displacement size will be 5.00e-03.
    Number of atoms is 3.
    Number of symmetric SALCs is 3.
    Translations projected? 1. Rotations projected? 1.
    Number of geometries (including reference) is 7.
 7 displacements needed ...

  //>>>>>>>>>>>>>>>>>>>>>>>>>>>>>>>>>>>//
  //    FiniteDifference Computations  //
  //<<<<<<<<<<<<<<<<<<<<<<<<<<<<<<<<<<<//


    -----------------------------------------------------------------------
          Psi4: An Open-Source Ab Initio Electronic Structure Package
                               Psi4 1.6.1 release

                         Git: Rev {HEAD} 5b9f6e3 


    D. G. A. Smith, L. A. Burns, A. C. Simmonett, R. M. Parrish,
    M. C. Schieber, R. Galvelis, P. Kraus, H. Kruse, R. Di Remigio,
    A. Alenaizan, A. M. James, S. Lehtola, J. P. Misiewicz, M. Scheurer,
    R. A. Shaw, J. B. Schriber, Y. Xie, Z. L. Glick, D. A. Sirianni,
    J. S. O'Brien, J. M. Waldrop, A. Kumar, E. G. Hohenstein,
    B. P. Pritchard, B. R. Brooks, H. F. Schaefer III, A. Yu. Sokolov,
    K. Patkowski, A. E. DePrince III, U. Bozkaya, R. A. King,
    F. A. Evangelista, J. M. Turney, T. D. Crawford, C. D. Sherrill,
    J. Chem. Phys. 152(18) 184108 (2020). https://doi.org/10.1063/5.0006002

                            Additional Code Authors
    E. T. Seidl, C. L. Janssen, E. F. Valeev, M. L. Leininger,
    J. F. Gonthier, R. M. Richard, H. R. McAlexander, M. Saitow, X. Wang,
    P. Verma, M. H. Lechner, and A. Jiang

             Previous Authors, Complete List of Code Contributors,
                       and Citations for Specific Modules
    https://github.com/psi4/psi4/blob/master/codemeta.json
    https://github.com/psi4/psi4/graphs/contributors
    http://psicode.org/psi4manual/master/introduction.html#citing-psifour

    -----------------------------------------------------------------------


    Psi4 started on: Friday, 19 August 2022 10:38AM

    Process ID: 4509
    Host:       node4
    PSIDATADIR: /home/mdavis/anaconda3/envs/p4env/share/psi4
    Memory:     7.5 GiB
    Threads:    4
    
  ==> Input QCSchema <==

--------------------------------------------------------------------------
{'driver': 'energy',
 'extras': {'psiapi': True, 'wfn_qcvars_only': True},
 'id': None,
 'keywords': {'DERTYPE': 'NONE',
              'E_CONVERGENCE': 1e-08,
              'FREEZE_CORE': 'TRUE',
              'PARENT_SYMMETRY': 'Cs(Z)',
              'REFERENCE': 'ROHF',
              'ROOTS_PER_IRREP': [0, 1],
              'SCF__D_CONVERGENCE': 1e-10,
              'SCF__E_CONVERGENCE': 1e-10,
              'function_kwargs': {}},
 'model': {'basis': 'aug-cc-pvdz', 'method': 'ccsd'},
 'molecule': {'atom_labels': ['', '', ''],
              'atomic_numbers': [1, 6, 9],
              'fix_com': True,
              'fix_orientation': True,
              'fragment_charges': [0.0],
              'fragment_multiplicities': [1],
              'fragments': [[0, 1, 2]],
              'geometry': [-1.4422474354707318, 2.7550731902522476, 0.0, 0.18637294655370262, 1.4235415823285547, 0.0,
                           -0.04121095251012666, -1.0453052577420383, 0.0],
              'mass_numbers': [1, 12, 19],
              'masses': [1.00782503223, 12.0, 18.99840316273],
              'molecular_charge': 0.0,
              'molecular_multiplicity': 1,
              'name': 'CFH',
              'provenance': {'creator': 'QCElemental',
                             'routine': 'qcelemental.molparse.from_string',
                             'version': 'v0.25.0'},
              'real': [True, True, True],
              'schema_name': 'qcschema_molecule',
              'schema_version': 2,
              'symbols': ['H', 'C', 'F'],
              'validated': True},
 'protocols': {'stdout': True},
 'provenance': {'creator': 'QCElemental', 'routine': 'qcelemental.models.results', 'version': 'v0.25.0'},
 'schema_name': 'qcschema_input',
 'schema_version': 1}
--------------------------------------------------------------------------

Scratch directory: /scratch/mdavis/PSI4_2022-08-19_10:38:07.952538582/

*** tstart() called on node4
*** at Fri Aug 19 10:38:14 2022

   => Loading Basis Set <=

    Name: AUG-CC-PVDZ
    Role: ORBITAL
    Keyword: BASIS
    atoms 1 entry H          line    40 file /home/mdavis/anaconda3/envs/p4env/share/psi4/basis/aug-cc-pvdz.gbs 
    atoms 2 entry C          line   182 file /home/mdavis/anaconda3/envs/p4env/share/psi4/basis/aug-cc-pvdz.gbs 
    atoms 3 entry F          line   290 file /home/mdavis/anaconda3/envs/p4env/share/psi4/basis/aug-cc-pvdz.gbs 


         ---------------------------------------------------------
                                   SCF
               by Justin Turney, Rob Parrish, Andy Simmonett
                          and Daniel G. A. Smith
                             ROHF Reference
                        4 Threads,   7629 MiB Core
         ---------------------------------------------------------

  ==> Geometry <==

    Molecular point group: cs
    Full point group: Cs

    Geometry (in Bohr), charge = 0, multiplicity = 1:

       Center              X                  Y                   Z               Mass       
    ------------   -----------------  -----------------  -----------------  -----------------
         H           -1.442247435471     2.755073190252     0.000000000000     1.007825032230
         C            0.186372946554     1.423541582329     0.000000000000    12.000000000000
         F           -0.041210952510    -1.045305257742     0.000000000000    18.998403162730

  Running in cs symmetry.

  Rotational constants: A =     23.65003  B =      1.14174  C =      1.08916 [cm^-1]
  Rotational constants: A = 709009.93690  B =  34228.46556  C =  32652.13708 [MHz]
  Nuclear repulsion =   26.854389555552174

  Charge       = 0
  Multiplicity = 1
  Electrons    = 16
  Nalpha       = 8
  Nbeta        = 8

  ==> Algorithm <==

  SCF Algorithm Type is PK.
  DIIS enabled.
  MOM disabled.
  Fractional occupation disabled.
  Guess Type is SAD.
  Energy threshold   = 1.00e-10
  Density threshold  = 1.00e-10
  Integral threshold = 1.00e-12

  ==> Primary Basis <==

  Basis Set: AUG-CC-PVDZ
    Blend: AUG-CC-PVDZ
    Number of shells: 23
    Number of basis functions: 55
    Number of Cartesian functions: 59
    Spherical Harmonics?: true
    Max angular momentum: 2

  ==> Integral Setup <==

  Using in-core PK algorithm.
   Calculation information:
      Number of atoms:                   3
      Number of AO shells:              23
      Number of primitives:             57
      Number of atomic orbitals:        59
      Number of basis functions:        55

      Integral cutoff                 1.00e-12
      Number of threads:                 4

  Performing in-core PK
  Using 2373140 doubles for integral storage.
  We computed 49959 shell quartets total.
  Whereas there are 38226 unique shell quartets.
    30.69 percent of shell quartets recomputed by reordering.

  ==> DiskJK: Disk-Based J/K Matrices <==

    J tasked:                  Yes
    K tasked:                  Yes
    wK tasked:                  No
    Memory [MiB]:             5722
    Schwarz Cutoff:          1E-12

    OpenMP threads:              4

  Minimum eigenvalue in the overlap matrix is 1.0525139139E-03.
  Reciprocal condition number of the overlap matrix is 1.9883659914E-04.
    Using symmetric orthogonalization.

  ==> Pre-Iterations <==

  SCF Guess: Superposition of Atomic Densities via on-the-fly atomic UHF (no occupation information).

   -------------------------
    Irrep   Nso     Nmo    
   -------------------------
     A'        39      39 
     A"        16      16 
   -------------------------
    Total      55      55
   -------------------------

  ==> Iterations <==

                        Total Energy        Delta E     RMS |[F,P]|

   @ROHF iter SAD:  -137.04473065513508   -1.37045e+02   0.00000e+00 
   @ROHF iter   1:  -137.73533505150897   -6.90604e-01   3.28642e-03 DIIS
   @ROHF iter   2:  -137.75305714224149   -1.77221e-02   1.25327e-03 DIIS
   @ROHF iter   3:  -137.75534358267552   -2.28644e-03   5.16682e-04 DIIS
   @ROHF iter   4:  -137.75582014995751   -4.76567e-04   1.05551e-04 DIIS
   @ROHF iter   5:  -137.75587643211082   -5.62822e-05   3.55179e-05 DIIS
   @ROHF iter   6:  -137.75588375836162   -7.32625e-06   1.03156e-05 DIIS
   @ROHF iter   7:  -137.75588427346497   -5.15103e-07   1.81106e-06 DIIS
   @ROHF iter   8:  -137.75588428777667   -1.43117e-08   3.85399e-07 DIIS
   @ROHF iter   9:  -137.75588428850742   -7.30751e-10   8.79190e-08 DIIS
   @ROHF iter  10:  -137.75588428854226   -3.48450e-11   1.65777e-08 DIIS
   @ROHF iter  11:  -137.75588428854360   -1.33582e-12   2.60984e-09 DIIS
   @ROHF iter  12:  -137.75588428854360    0.00000e+00   6.10182e-10 DIIS
   @ROHF iter  13:  -137.75588428854354    5.68434e-14   1.83399e-10 DIIS
   @ROHF iter  14:  -137.75588428854351    2.84217e-14   4.82206e-11 DIIS
  Energy and wave function converged.


  ==> Post-Iterations <==

    Orbital Energies [Eh]
    ---------------------

    Doubly Occupied:                                                      

       1Ap   -26.379150     2Ap   -11.376637     3Ap    -1.688243  
       4Ap    -0.925963     5Ap    -0.766986     1App   -0.719368  
       6Ap    -0.701845     7Ap    -0.378790  

    Singly Occupied:                                                      

    

    Virtual:                                                              

       8Ap     0.036466     2App    0.043303     9Ap     0.086857  
      10Ap     0.113351     3App    0.141860    11Ap     0.172143  
      12Ap     0.247412    13Ap     0.263368     4App    0.284351  
      14Ap     0.306461    15Ap     0.330300     5App    0.375346  
      16Ap     0.435374    17Ap     0.477519     6App    0.516981  
      18Ap     0.518750    19Ap     0.573364    20Ap     0.626018  
       7App    0.629288    21Ap     0.730426     8App    0.847491  
      22Ap     0.873678    23Ap     0.936704    24Ap     1.077509  
       9App    1.404539    25Ap     1.409332    26Ap     1.434066  
      10App    1.438453    11App    1.553549    27Ap     1.581071  
      28Ap     1.671260    12App    1.711578    29Ap     1.767489  
      30Ap     1.820350    13App    2.004602    31Ap     2.005658  
      14App    2.219341    32Ap     2.222598    33Ap     2.277081  
      34Ap     2.435366    35Ap     2.793633    36Ap     3.429820  
      15App    4.858966    37Ap     4.859335    16App    4.943141  
      38Ap     4.981440    39Ap     5.010279  

    Final Occupation by Irrep:
             Ap   App 
    DOCC [     7,    1 ]
    SOCC [     0,    0 ]

  @ROHF Final Energy:  -137.75588428854351

   => Energetics <=

    Nuclear Repulsion Energy =             26.8543895555521743
    One-Electron Energy =                -243.3465859781838958
    Two-Electron Energy =                  78.7363121340881946
    Total Energy =                       -137.7558842885435126

Computation Completed


Properties will be evaluated at   0.000000,   0.000000,   0.000000 [a0]

Properties computed using the SCF density matrix


 Multipole Moments:

 ------------------------------------------------------------------------------------
     Multipole            Electronic (a.u.)      Nuclear  (a.u.)        Total (a.u.)
 ------------------------------------------------------------------------------------

 L = 1.  Multiply by 2.5417464519 to convert [e a0] to [Debye]
 Dipole X            :         -0.0092061           -0.6949083           -0.7041144
 Dipole Y            :         -1.6500468            1.8885754            0.2385286
 Dipole Z            :          0.0000000            0.0000000            0.0000000
 Magnitude           :                                                    0.7434198

 ------------------------------------------------------------------------------------

*** tstop() called on node4 at Fri Aug 19 10:38:16 2022
Module time:
	user time   =       2.11 seconds =       0.04 minutes
	system time =       1.44 seconds =       0.02 minutes
	total time  =          2 seconds =       0.03 minutes
Total time:
	user time   =       2.11 seconds =       0.04 minutes
	system time =       1.44 seconds =       0.02 minutes
	total time  =          2 seconds =       0.03 minutes
 MINTS: Wrapper to libmints.
   by Justin Turney

   Calculation information:
      Number of threads:                 4
      Number of atoms:                   3
      Number of AO shells:              23
      Number of SO shells:              23
      Number of primitives:             57
      Number of atomic orbitals:        59
      Number of basis functions:        55

      Number of irreps:                  2
      Integral cutoff                 1.00e-12
      Number of functions per irrep: [  39   16 ]

 OEINTS: Overlap, kinetic, potential, dipole, and quadrupole integrals
         stored in file 35.

      Computing two-electron integrals...done
      Computed 584494 non-zero two-electron integrals.
        Stored in file 33.


*** tstart() called on node4
*** at Fri Aug 19 10:38:16 2022


	Wfn Parameters:
	--------------------
	Wavefunction         = CCSD
	Number of irreps     = 2
	Number of MOs        = 55
	Number of active MOs = 53
	AO-Basis             = NONE
	Semicanonical        = false
	Reference            = ROHF
	Print Level          = 1

	IRREP	# MOs	# FZDC	# DOCC	# SOCC	# VIRT	# FZVR
	-----	-----	------	------	------	------	------
	 Ap	   39	    2	    5	    0	    32	    0
	 App	   16	    0	    1	    0	    15	    0
	Transforming integrals...
	IWL integrals will be deleted.
	(OO|OO)...
	Presorting SO-basis two-electron integrals.
	Sorting File: SO Ints (nn|nn) nbuckets = 1
	Constructing frozen core operators
	Starting first half-transformation.
	Sorting half-transformed integrals.
	First half integral transformation complete.
	Starting second half-transformation.
	Two-electron integral transformation complete.
	(OO|OV)...
	Starting second half-transformation.
	Two-electron integral transformation complete.
	(OO|VV)...
	Starting second half-transformation.
	Two-electron integral transformation complete.
	(OV|OO)...
	Starting first half-transformation.
	Sorting half-transformed integrals.
	First half integral transformation complete.
	Starting second half-transformation.
	Two-electron integral transformation complete.
	(OV|OV)...
	Starting second half-transformation.
	Two-electron integral transformation complete.
	(OV|VV)...
	Starting second half-transformation.
	Two-electron integral transformation complete.
	(VV|OO)...
	Starting first half-transformation.
	Sorting half-transformed integrals.
	First half integral transformation complete.
	Starting second half-transformation.
	Two-electron integral transformation complete.
	(VV|OV)...
	Starting second half-transformation.
	Two-electron integral transformation complete.
	(VV|VV)...
	Starting second half-transformation.
	Two-electron integral transformation complete.
	Frozen core energy     =   -119.76871399310710

	Size of irrep 0 of <ab|cd> integrals:      1.560 (MW) /     12.480 (MB)
	Size of irrep 1 of <ab|cd> integrals:      0.922 (MW) /      7.373 (MB)
	Total:                                     2.482 (MW) /     19.853 (MB)

	Size of irrep 0 of <ia|bc> integrals:      0.219 (MW) /      1.749 (MB)
	Size of irrep 1 of <ia|bc> integrals:      0.103 (MW) /      0.822 (MB)
	Total:                                     0.321 (MW) /      2.570 (MB)

	Size of irrep 0 of tIjAb amplitudes:       0.032 (MW) /      0.260 (MB)
	Size of irrep 1 of tIjAb amplitudes:       0.010 (MW) /      0.077 (MB)
	Total:                                     0.042 (MW) /      0.337 (MB)

	Nuclear Rep. energy          =     26.85438955555217
	SCF energy                   =   -137.75588428854351
	One-electron energy          =    -79.32073067284229
	Two-electron (AA) energy     =      7.09165548584137
	Two-electron (BB) energy     =      7.09165548584137
	Two-electron (AB) energy     =     20.29585985017066
	Two-electron energy          =    -44.84155985098888
	Reference energy             =   -137.75588428854380

*** tstop() called on node4 at Fri Aug 19 10:38:18 2022
Module time:
	user time   =       0.42 seconds =       0.01 minutes
	system time =       0.41 seconds =       0.01 minutes
	total time  =          2 seconds =       0.03 minutes
Total time:
	user time   =       3.09 seconds =       0.05 minutes
	system time =       2.27 seconds =       0.04 minutes
	total time  =          4 seconds =       0.07 minutes
            **************************
            *                        *
            *        CCENERGY        *
            *                        *
            **************************

    Nuclear Rep. energy (wfn)     =   26.854389555552174
    SCF energy          (wfn)     = -137.755884288543513
    Reference energy    (file100) = -137.755884288543797

    Input parameters:
    -----------------
    Wave function   =     CCSD
    Reference wfn   =     ROHF
    Brueckner       =     No
    Memory (Mbytes) =     8000.0
    Maxiter         =     50
    R_Convergence   =     1.0e-07
    E_Convergence   =     1.0e-08
    Restart         =     Yes
    DIIS            =     Yes
    AO Basis        =     NONE
    ABCD            =     NEW
    Cache Level     =     2
    Cache Type      =     LOW
    Print Level     =     1
    Num. of threads =     4
    # Amps to Print =     10
    Print MP2 Amps? =     No
    Analyze T2 Amps =     No
    Print Pair Ener =     No
    Local CC        =     No
    SCS-MP2         =     False
    SCSN-MP2        =     False
    SCS-CCSD        =     False

                Solving CC Amplitude Equations
                ------------------------------
  Iter             Energy              RMS        T1Diag      D1Diag    New D1Diag    D2Diag
  ----     ---------------------    ---------   ----------  ----------  ----------   --------
     0        -0.318347766984420    0.000e+00    0.000000    0.000000    0.000000    0.000000
     1        -0.324590617204157    9.063e-02    0.014725    0.041479    0.041479    0.000000
     2        -0.335059937799112    3.287e-02    0.014342    0.040338    0.040338    0.000000
     3        -0.339299920981116    2.138e-02    0.018500    0.053203    0.053203    0.000000
     4        -0.339266756993870    7.760e-03    0.019727    0.056997    0.056997    0.000000
     5        -0.339295453747998    3.723e-03    0.020108    0.058215    0.058215    0.000000
     6        -0.339392999102771    1.647e-03    0.020092    0.058039    0.058039    0.000000
     7        -0.339397373248430    7.408e-04    0.020007    0.057662    0.057662    0.000000
     8        -0.339401992265799    3.144e-04    0.019960    0.057473    0.057473    0.000000
     9        -0.339408142324385    1.224e-04    0.019939    0.057394    0.057394    0.000000
    10        -0.339405756060532    4.547e-05    0.019932    0.057373    0.057373    0.000000
    11        -0.339406497014152    1.837e-05    0.019929    0.057364    0.057364    0.000000
    12        -0.339406715412673    6.427e-06    0.019929    0.057364    0.057364    0.000000
    13        -0.339406879199144    2.865e-06    0.019929    0.057364    0.057364    0.000000
    14        -0.339406960260801    1.178e-06    0.019929    0.057365    0.057365    0.000000
    15        -0.339406985299623    4.777e-07    0.019929    0.057365    0.057365    0.000000
    16        -0.339406988775394    2.413e-07    0.019929    0.057365    0.057365    0.000000
    17        -0.339406991733194    1.181e-07    0.019929    0.057365    0.057365    0.000000
    18        -0.339406993147720    6.595e-08    0.019929    0.057365    0.057365    0.000000

    Iterations converged.


    Largest TIA Amplitudes:
              5  32         0.0453788347
              5  33         0.0304531252
              4   5         0.0145004680
              4   6         0.0112252197
              5  34         0.0105797136
              2   5        -0.0099716073
              4   4         0.0097006238
              4   1         0.0088766860
              5  38         0.0082309400
              5  36         0.0081010131

    Largest Tia Amplitudes:
              5  32         0.0453788347
              5  33         0.0304531252
              4   5         0.0145004680
              4   6         0.0112252197
              5  34         0.0105797136
              2   5        -0.0099716073
              4   4         0.0097006238
              4   1         0.0088766860
              5  38         0.0082309400
              5  36         0.0081010131

    Largest TIJAB Amplitudes:
      5   3  32  11        -0.0097421278
      5   2  42  21        -0.0078670377
      5   3  42  22        -0.0077062823
      5   3  32   4        -0.0074823728
      5   3  32   9        -0.0074437443
      5   3  39  17         0.0072845371
      5   2  40  18        -0.0072265612
      5   2  39  17        -0.0071841296
      4   3  12   7         0.0069996217
      5   3  33  11        -0.0067633414

    Largest Tijab Amplitudes:
      5   3  32  11        -0.0097421278
      5   2  42  21        -0.0078670377
      5   3  42  22        -0.0077062823
      5   3  32   4        -0.0074823728
      5   3  32   9        -0.0074437443
      5   3  39  17         0.0072845371
      5   2  40  18        -0.0072265612
      5   2  39  17        -0.0071841296
      4   3  12   7         0.0069996217
      5   3  33  11        -0.0067633414

    Largest TIjAb Amplitudes:
      4   4  32  32        -0.0726277071
      4   4  32  33        -0.0546599836
      4   4  33  32        -0.0546599836
      4   4  33  33        -0.0410922527
      5   5  32  32        -0.0261971029
      4   4   7   7        -0.0261524601
      4   4  32  35        -0.0244477503
      4   4  35  32        -0.0244477503
      5   5  42  42        -0.0223458294
      4   4  33  35        -0.0186926924

    SCF energy       (wfn)                    = -137.755884288543513
    Reference energy (file100)                = -137.755884288543797

    Opposite-spin CCSD correlation energy     =   -0.267777130477926
    Same-spin CCSD correlation energy         =   -0.071629862773395
    Singles CCSD correlation energy           =    0.000000000103601
    CCSD correlation energy                   =   -0.339406993147720
      * CCSD total energy                     = -138.095291281691516


    Psi4 stopped on: Friday, 19 August 2022 10:38AM
    Psi4 wall time for execution: 0:00:22.61


    -----------------------------------------------------------------------
          Psi4: An Open-Source Ab Initio Electronic Structure Package
                               Psi4 1.6.1 release

                         Git: Rev {HEAD} 5b9f6e3 


    D. G. A. Smith, L. A. Burns, A. C. Simmonett, R. M. Parrish,
    M. C. Schieber, R. Galvelis, P. Kraus, H. Kruse, R. Di Remigio,
    A. Alenaizan, A. M. James, S. Lehtola, J. P. Misiewicz, M. Scheurer,
    R. A. Shaw, J. B. Schriber, Y. Xie, Z. L. Glick, D. A. Sirianni,
    J. S. O'Brien, J. M. Waldrop, A. Kumar, E. G. Hohenstein,
    B. P. Pritchard, B. R. Brooks, H. F. Schaefer III, A. Yu. Sokolov,
    K. Patkowski, A. E. DePrince III, U. Bozkaya, R. A. King,
    F. A. Evangelista, J. M. Turney, T. D. Crawford, C. D. Sherrill,
    J. Chem. Phys. 152(18) 184108 (2020). https://doi.org/10.1063/5.0006002

                            Additional Code Authors
    E. T. Seidl, C. L. Janssen, E. F. Valeev, M. L. Leininger,
    J. F. Gonthier, R. M. Richard, H. R. McAlexander, M. Saitow, X. Wang,
    P. Verma, M. H. Lechner, and A. Jiang

             Previous Authors, Complete List of Code Contributors,
                       and Citations for Specific Modules
    https://github.com/psi4/psi4/blob/master/codemeta.json
    https://github.com/psi4/psi4/graphs/contributors
    http://psicode.org/psi4manual/master/introduction.html#citing-psifour

    -----------------------------------------------------------------------


    Psi4 started on: Friday, 19 August 2022 10:38AM

    Process ID: 4509
    Host:       node4
    PSIDATADIR: /home/mdavis/anaconda3/envs/p4env/share/psi4
    Memory:     7.5 GiB
    Threads:    4
    
  ==> Input QCSchema <==

--------------------------------------------------------------------------
{'driver': 'energy',
 'extras': {'psiapi': True, 'wfn_qcvars_only': True},
 'id': None,
 'keywords': {'DERTYPE': 'NONE',
              'E_CONVERGENCE': 1e-08,
              'FREEZE_CORE': 'TRUE',
              'PARENT_SYMMETRY': 'Cs(Z)',
              'REFERENCE': 'ROHF',
              'ROOTS_PER_IRREP': [0, 1],
              'SCF__D_CONVERGENCE': 1e-10,
              'SCF__E_CONVERGENCE': 1e-10,
              'function_kwargs': {}},
 'model': {'basis': 'aug-cc-pvdz', 'method': 'ccsd'},
 'molecule': {'atom_labels': ['', '', ''],
              'atomic_numbers': [1, 6, 9],
              'fix_com': True,
              'fix_orientation': True,
              'fragment_charges': [0.0],
              'fragment_multiplicities': [1],
              'fragments': [[0, 1, 2]],
              'geometry': [-1.4467852283892444, 2.7554692538507646, 0.0, 0.18693600492596527, 1.423490401415999, 0.0,
                           -0.04132587791486186, -1.0452939405729118, 0.0],
              'mass_numbers': [1, 12, 19],
              'masses': [1.00782503223, 12.0, 18.99840316273],
              'molecular_charge': 0.0,
              'molecular_multiplicity': 1,
              'name': 'CFH',
              'provenance': {'creator': 'QCElemental',
                             'routine': 'qcelemental.molparse.from_string',
                             'version': 'v0.25.0'},
              'real': [True, True, True],
              'schema_name': 'qcschema_molecule',
              'schema_version': 2,
              'symbols': ['H', 'C', 'F'],
              'validated': True},
 'protocols': {'stdout': True},
 'provenance': {'creator': 'QCElemental', 'routine': 'qcelemental.models.results', 'version': 'v0.25.0'},
 'schema_name': 'qcschema_input',
 'schema_version': 1}
--------------------------------------------------------------------------

Scratch directory: /scratch/mdavis/PSI4_2022-08-19_10:38:07.952538582/

*** tstart() called on node4
*** at Fri Aug 19 10:38:36 2022

   => Loading Basis Set <=

    Name: AUG-CC-PVDZ
    Role: ORBITAL
    Keyword: BASIS
    atoms 1 entry H          line    40 file /home/mdavis/anaconda3/envs/p4env/share/psi4/basis/aug-cc-pvdz.gbs 
    atoms 2 entry C          line   182 file /home/mdavis/anaconda3/envs/p4env/share/psi4/basis/aug-cc-pvdz.gbs 
    atoms 3 entry F          line   290 file /home/mdavis/anaconda3/envs/p4env/share/psi4/basis/aug-cc-pvdz.gbs 


         ---------------------------------------------------------
                                   SCF
               by Justin Turney, Rob Parrish, Andy Simmonett
                          and Daniel G. A. Smith
                             ROHF Reference
                        4 Threads,   7629 MiB Core
         ---------------------------------------------------------

  ==> Geometry <==

    Molecular point group: cs
    Full point group: Cs

    Geometry (in Bohr), charge = 0, multiplicity = 1:

       Center              X                  Y                   Z               Mass       
    ------------   -----------------  -----------------  -----------------  -----------------
         H           -1.446785228389     2.755469253851     0.000000000000     1.007825032230
         C            0.186936004926     1.423490401416     0.000000000000    12.000000000000
         F           -0.041325877915    -1.045293940573     0.000000000000    18.998403162730

  Running in cs symmetry.

  Rotational constants: A =     23.50308  B =      1.14174  C =      1.08884 [cm^-1]
  Rotational constants: A = 704604.55371  B =  34228.46444  C =  32642.73702 [MHz]
  Nuclear repulsion =   26.847621749079252

  Charge       = 0
  Multiplicity = 1
  Electrons    = 16
  Nalpha       = 8
  Nbeta        = 8

  ==> Algorithm <==

  SCF Algorithm Type is PK.
  DIIS enabled.
  MOM disabled.
  Fractional occupation disabled.
  Guess Type is SAD.
  Energy threshold   = 1.00e-10
  Density threshold  = 1.00e-10
  Integral threshold = 1.00e-12

  ==> Primary Basis <==

  Basis Set: AUG-CC-PVDZ
    Blend: AUG-CC-PVDZ
    Number of shells: 23
    Number of basis functions: 55
    Number of Cartesian functions: 59
    Spherical Harmonics?: true
    Max angular momentum: 2

  ==> Integral Setup <==

  Using in-core PK algorithm.
   Calculation information:
      Number of atoms:                   3
      Number of AO shells:              23
      Number of primitives:             57
      Number of atomic orbitals:        59
      Number of basis functions:        55

      Integral cutoff                 1.00e-12
      Number of threads:                 4

  Performing in-core PK
  Using 2373140 doubles for integral storage.
  We computed 49959 shell quartets total.
  Whereas there are 38226 unique shell quartets.
    30.69 percent of shell quartets recomputed by reordering.

  ==> DiskJK: Disk-Based J/K Matrices <==

    J tasked:                  Yes
    K tasked:                  Yes
    wK tasked:                  No
    Memory [MiB]:             5722
    Schwarz Cutoff:          1E-12

    OpenMP threads:              4

  Minimum eigenvalue in the overlap matrix is 1.0579432706E-03.
  Reciprocal condition number of the overlap matrix is 1.9990352130E-04.
    Using symmetric orthogonalization.

  ==> Pre-Iterations <==

  SCF Guess: Superposition of Atomic Densities via on-the-fly atomic UHF (no occupation information).

   -------------------------
    Irrep   Nso     Nmo    
   -------------------------
     A'        39      39 
     A"        16      16 
   -------------------------
    Total      55      55
   -------------------------

  ==> Iterations <==

                        Total Energy        Delta E     RMS |[F,P]|

   @ROHF iter SAD:  -137.04411345004041   -1.37044e+02   0.00000e+00 
   @ROHF iter   1:  -137.73546294056194   -6.91349e-01   3.28856e-03 DIIS
   @ROHF iter   2:  -137.75318975457949   -1.77268e-02   1.25658e-03 DIIS
   @ROHF iter   3:  -137.75548407723409   -2.29432e-03   5.16665e-04 DIIS
   @ROHF iter   4:  -137.75596036341602   -4.76286e-04   1.05447e-04 DIIS
   @ROHF iter   5:  -137.75601644518713   -5.60818e-05   3.54703e-05 DIIS
   @ROHF iter   6:  -137.75602374180551   -7.29662e-06   1.03182e-05 DIIS
   @ROHF iter   7:  -137.75602425685142   -5.15046e-07   1.81054e-06 DIIS
   @ROHF iter   8:  -137.75602427116218   -1.43108e-08   3.84268e-07 DIIS
   @ROHF iter   9:  -137.75602427188954   -7.27368e-10   8.73597e-08 DIIS
   @ROHF iter  10:  -137.75602427192413   -3.45892e-11   1.64643e-08 DIIS
   @ROHF iter  11:  -137.75602427192527   -1.13687e-12   2.53025e-09 DIIS
   @ROHF iter  12:  -137.75602427192530   -2.84217e-14   5.50985e-10 DIIS
   @ROHF iter  13:  -137.75602427192518    1.13687e-13   1.62394e-10 DIIS
   @ROHF iter  14:  -137.75602427192518    0.00000e+00   4.61591e-11 DIIS
  Energy and wave function converged.


  ==> Post-Iterations <==

    Orbital Energies [Eh]
    ---------------------

    Doubly Occupied:                                                      

       1Ap   -26.379184     2Ap   -11.376939     3Ap    -1.688311  
       4Ap    -0.925786     5Ap    -0.766798     1App   -0.719413  
       6Ap    -0.701435     7Ap    -0.378937  

    Singly Occupied:                                                      

    

    Virtual:                                                              

       8Ap     0.036490     2App    0.043302     9Ap     0.086861  
      10Ap     0.113370     3App    0.141857    11Ap     0.172112  
      12Ap     0.247430    13Ap     0.263134     4App    0.284357  
      14Ap     0.306376    15Ap     0.330070     5App    0.375155  
      16Ap     0.435366    17Ap     0.477637     6App    0.517131  
      18Ap     0.518713    19Ap     0.573454    20Ap     0.625627  
       7App    0.629068    21Ap     0.730133     8App    0.847378  
      22Ap     0.873413    23Ap     0.935967    24Ap     1.077247  
       9App    1.404523    25Ap     1.409137    26Ap     1.434206  
      10App    1.438400    11App    1.553319    27Ap     1.580943  
      28Ap     1.671546    12App    1.711473    29Ap     1.767528  
      30Ap     1.820332    31Ap     2.004530    13App    2.004623  
      14App    2.218009    32Ap     2.220490    33Ap     2.276763  
      34Ap     2.433459    35Ap     2.789296    36Ap     3.429386  
      15App    4.858849    37Ap     4.859269    16App    4.943093  
      38Ap     4.981386    39Ap     5.010098  

    Final Occupation by Irrep:
             Ap   App 
    DOCC [     7,    1 ]
    SOCC [     0,    0 ]

  @ROHF Final Energy:  -137.75602427192518

   => Energetics <=

    Nuclear Repulsion Energy =             26.8476217490792521
    One-Electron Energy =                -243.3336871812700224
    Two-Electron Energy =                  78.7300411602655714
    Total Energy =                       -137.7560242719251846

Computation Completed


Properties will be evaluated at   0.000000,   0.000000,   0.000000 [a0]

Properties computed using the SCF density matrix


 Multipole Moments:

 ------------------------------------------------------------------------------------
     Multipole            Electronic (a.u.)      Nuclear  (a.u.)        Total (a.u.)
 ------------------------------------------------------------------------------------

 L = 1.  Multiply by 2.5417464519 to convert [e a0] to [Debye]
 Dipole X            :         -0.0055908           -0.6971021           -0.7026929
 Dipole Y            :         -1.6509963            1.8887662            0.2377699
 Dipole Z            :          0.0000000            0.0000000            0.0000000
 Magnitude           :                                                    0.7418300

 ------------------------------------------------------------------------------------

*** tstop() called on node4 at Fri Aug 19 10:38:38 2022
Module time:
	user time   =       2.11 seconds =       0.04 minutes
	system time =       1.48 seconds =       0.02 minutes
	total time  =          2 seconds =       0.03 minutes
Total time:
	user time   =      13.79 seconds =       0.23 minutes
	system time =      16.24 seconds =       0.27 minutes
	total time  =         24 seconds =       0.40 minutes
 MINTS: Wrapper to libmints.
   by Justin Turney

   Calculation information:
      Number of threads:                 4
      Number of atoms:                   3
      Number of AO shells:              23
      Number of SO shells:              23
      Number of primitives:             57
      Number of atomic orbitals:        59
      Number of basis functions:        55

      Number of irreps:                  2
      Integral cutoff                 1.00e-12
      Number of functions per irrep: [  39   16 ]

 OEINTS: Overlap, kinetic, potential, dipole, and quadrupole integrals
         stored in file 35.

      Computing two-electron integrals...done
      Computed 584494 non-zero two-electron integrals.
        Stored in file 33.


*** tstart() called on node4
*** at Fri Aug 19 10:38:39 2022


	Wfn Parameters:
	--------------------
	Wavefunction         = CCSD
	Number of irreps     = 2
	Number of MOs        = 55
	Number of active MOs = 53
	AO-Basis             = NONE
	Semicanonical        = false
	Reference            = ROHF
	Print Level          = 1

	IRREP	# MOs	# FZDC	# DOCC	# SOCC	# VIRT	# FZVR
	-----	-----	------	------	------	------	------
	 Ap	   39	    2	    5	    0	    32	    0
	 App	   16	    0	    1	    0	    15	    0
	Transforming integrals...
	IWL integrals will be deleted.
	(OO|OO)...
	Presorting SO-basis two-electron integrals.
	Sorting File: SO Ints (nn|nn) nbuckets = 1
	Constructing frozen core operators
	Starting first half-transformation.
	Sorting half-transformed integrals.
	First half integral transformation complete.
	Starting second half-transformation.
	Two-electron integral transformation complete.
	(OO|OV)...
	Starting second half-transformation.
	Two-electron integral transformation complete.
	(OO|VV)...
	Starting second half-transformation.
	Two-electron integral transformation complete.
	(OV|OO)...
	Starting first half-transformation.
	Sorting half-transformed integrals.
	First half integral transformation complete.
	Starting second half-transformation.
	Two-electron integral transformation complete.
	(OV|OV)...
	Starting second half-transformation.
	Two-electron integral transformation complete.
	(OV|VV)...
	Starting second half-transformation.
	Two-electron integral transformation complete.
	(VV|OO)...
	Starting first half-transformation.
	Sorting half-transformed integrals.
	First half integral transformation complete.
	Starting second half-transformation.
	Two-electron integral transformation complete.
	(VV|OV)...
	Starting second half-transformation.
	Two-electron integral transformation complete.
	(VV|VV)...
	Starting second half-transformation.
	Two-electron integral transformation complete.
	Frozen core energy     =   -119.76657713323590

	Size of irrep 0 of <ab|cd> integrals:      1.560 (MW) /     12.480 (MB)
	Size of irrep 1 of <ab|cd> integrals:      0.922 (MW) /      7.373 (MB)
	Total:                                     2.482 (MW) /     19.853 (MB)

	Size of irrep 0 of <ia|bc> integrals:      0.219 (MW) /      1.749 (MB)
	Size of irrep 1 of <ia|bc> integrals:      0.103 (MW) /      0.822 (MB)
	Total:                                     0.321 (MW) /      2.570 (MB)

	Size of irrep 0 of tIjAb amplitudes:       0.032 (MW) /      0.260 (MB)
	Size of irrep 1 of tIjAb amplitudes:       0.010 (MW) /      0.077 (MB)
	Total:                                     0.042 (MW) /      0.337 (MB)

	Nuclear Rep. energy          =     26.84762174907925
	SCF energy                   =   -137.75602427192518
	One-electron energy          =    -79.31277934149071
	Two-electron (AA) energy     =      7.09098579163708
	Two-electron (BB) energy     =      7.09098579163708
	Two-electron (AB) energy     =     20.29373887044834
	Two-electron energy          =    -44.83706888776821
	Reference energy             =   -137.75602427192484

*** tstop() called on node4 at Fri Aug 19 10:38:40 2022
Module time:
	user time   =       0.42 seconds =       0.01 minutes
	system time =       0.43 seconds =       0.01 minutes
	total time  =          1 seconds =       0.02 minutes
Total time:
	user time   =      14.81 seconds =       0.25 minutes
	system time =      17.06 seconds =       0.28 minutes
	total time  =         26 seconds =       0.43 minutes
            **************************
            *                        *
            *        CCENERGY        *
            *                        *
            **************************

    Nuclear Rep. energy (wfn)     =   26.847621749079252
    SCF energy          (wfn)     = -137.756024271925185
    Reference energy    (file100) = -137.756024271924844

    Input parameters:
    -----------------
    Wave function   =     CCSD
    Reference wfn   =     ROHF
    Brueckner       =     No
    Memory (Mbytes) =     8000.0
    Maxiter         =     50
    R_Convergence   =     1.0e-07
    E_Convergence   =     1.0e-08
    Restart         =     Yes
    DIIS            =     Yes
    AO Basis        =     NONE
    ABCD            =     NEW
    Cache Level     =     2
    Cache Type      =     LOW
    Print Level     =     1
    Num. of threads =     4
    # Amps to Print =     10
    Print MP2 Amps? =     No
    Analyze T2 Amps =     No
    Print Pair Ener =     No
    Local CC        =     No
    SCS-MP2         =     False
    SCSN-MP2        =     False
    SCS-CCSD        =     False

                Solving CC Amplitude Equations
                ------------------------------
  Iter             Energy              RMS        T1Diag      D1Diag    New D1Diag    D2Diag
  ----     ---------------------    ---------   ----------  ----------  ----------   --------
     0        -0.318393814828238    0.000e+00    0.000000    0.000000    0.000000    0.000000
     1        -0.324639961691245    9.066e-02    0.014729    0.041483    0.041483    0.000000
     2        -0.335116744343540    3.288e-02    0.014345    0.040335    0.040335    0.000000
     3        -0.339359669411865    2.138e-02    0.018503    0.053195    0.053195    0.000000
     4        -0.339326184814269    7.744e-03    0.019729    0.056982    0.056982    0.000000
     5        -0.339354338726508    3.713e-03    0.020110    0.058199    0.058199    0.000000
     6        -0.339451333797234    1.640e-03    0.020095    0.058028    0.058028    0.000000
     7        -0.339455589019767    7.383e-04    0.020011    0.057653    0.057653    0.000000
     8        -0.339460141284469    3.136e-04    0.019963    0.057466    0.057466    0.000000
     9        -0.339466291825488    1.222e-04    0.019943    0.057387    0.057387    0.000000
    10        -0.339463909424277    4.535e-05    0.019936    0.057366    0.057366    0.000000
    11        -0.339464647407566    1.832e-05    0.019933    0.057357    0.057357    0.000000
    12        -0.339464864797867    6.405e-06    0.019933    0.057357    0.057357    0.000000
    13        -0.339465027852328    2.853e-06    0.019932    0.057357    0.057357    0.000000
    14        -0.339465108537113    1.172e-06    0.019932    0.057358    0.057358    0.000000
    15        -0.339465133567820    4.745e-07    0.019932    0.057358    0.057358    0.000000
    16        -0.339465137000875    2.395e-07    0.019932    0.057358    0.057358    0.000000
    17        -0.339465139928756    1.170e-07    0.019932    0.057358    0.057358    0.000000
    18        -0.339465141316908    6.522e-08    0.019932    0.057358    0.057358    0.000000

    Iterations converged.


    Largest TIA Amplitudes:
              5  32         0.0453769652
              5  33         0.0304461910
              4   5         0.0145605443
              4   6         0.0112115956
              5  34         0.0105745781
              2   5        -0.0100165233
              4   4         0.0097371224
              4   1         0.0088710609
              5  38         0.0082281397
              5  36         0.0080988894

    Largest Tia Amplitudes:
              5  32         0.0453769652
              5  33         0.0304461910
              4   5         0.0145605443
              4   6         0.0112115956
              5  34         0.0105745781
              2   5        -0.0100165233
              4   4         0.0097371224
              4   1         0.0088710609
              5  38         0.0082281397
              5  36         0.0080988894

    Largest TIJAB Amplitudes:
      5   3  32  11        -0.0097213262
      5   2  42  21        -0.0078725200
      5   3  42  22        -0.0076931220
      5   3  32   4        -0.0074953777
      5   3  32   9        -0.0074672711
      5   3  39  17         0.0072494115
      5   2  39  17        -0.0072427171
      5   2  40  18        -0.0072218033
      4   3  12   7         0.0070415443
      5   3  33  11        -0.0067520750

    Largest Tijab Amplitudes:
      5   3  32  11        -0.0097213262
      5   2  42  21        -0.0078725200
      5   3  42  22        -0.0076931220
      5   3  32   4        -0.0074953777
      5   3  32   9        -0.0074672711
      5   3  39  17         0.0072494115
      5   2  39  17        -0.0072427171
      5   2  40  18        -0.0072218033
      4   3  12   7         0.0070415443
      5   3  33  11        -0.0067520750

    Largest TIjAb Amplitudes:
      4   4  32  32        -0.0724851352
      4   4  32  33        -0.0545538218
      4   4  33  32        -0.0545538218
      4   4  33  33        -0.0410150272
      5   5  32  32        -0.0262030123
      4   4   7   7        -0.0260842950
      4   4  32  35        -0.0243826794
      4   4  35  32        -0.0243826794
      5   5  42  42        -0.0223610980
      4   4  33  35        -0.0186496132

    SCF energy       (wfn)                    = -137.756024271925185
    Reference energy (file100)                = -137.756024271924844

    Opposite-spin CCSD correlation energy     =   -0.267834640710885
    Same-spin CCSD correlation energy         =   -0.071630500704388
    Singles CCSD correlation energy           =    0.000000000098365
    CCSD correlation energy                   =   -0.339465141316908
      * CCSD total energy                     = -138.095489413241751


    Psi4 stopped on: Friday, 19 August 2022 10:38AM
    Psi4 wall time for execution: 0:00:22.21


    -----------------------------------------------------------------------
          Psi4: An Open-Source Ab Initio Electronic Structure Package
                               Psi4 1.6.1 release

                         Git: Rev {HEAD} 5b9f6e3 


    D. G. A. Smith, L. A. Burns, A. C. Simmonett, R. M. Parrish,
    M. C. Schieber, R. Galvelis, P. Kraus, H. Kruse, R. Di Remigio,
    A. Alenaizan, A. M. James, S. Lehtola, J. P. Misiewicz, M. Scheurer,
    R. A. Shaw, J. B. Schriber, Y. Xie, Z. L. Glick, D. A. Sirianni,
    J. S. O'Brien, J. M. Waldrop, A. Kumar, E. G. Hohenstein,
    B. P. Pritchard, B. R. Brooks, H. F. Schaefer III, A. Yu. Sokolov,
    K. Patkowski, A. E. DePrince III, U. Bozkaya, R. A. King,
    F. A. Evangelista, J. M. Turney, T. D. Crawford, C. D. Sherrill,
    J. Chem. Phys. 152(18) 184108 (2020). https://doi.org/10.1063/5.0006002

                            Additional Code Authors
    E. T. Seidl, C. L. Janssen, E. F. Valeev, M. L. Leininger,
    J. F. Gonthier, R. M. Richard, H. R. McAlexander, M. Saitow, X. Wang,
    P. Verma, M. H. Lechner, and A. Jiang

             Previous Authors, Complete List of Code Contributors,
                       and Citations for Specific Modules
    https://github.com/psi4/psi4/blob/master/codemeta.json
    https://github.com/psi4/psi4/graphs/contributors
    http://psicode.org/psi4manual/master/introduction.html#citing-psifour

    -----------------------------------------------------------------------


    Psi4 started on: Friday, 19 August 2022 10:38AM

    Process ID: 4509
    Host:       node4
    PSIDATADIR: /home/mdavis/anaconda3/envs/p4env/share/psi4
    Memory:     7.5 GiB
    Threads:    4
    
  ==> Input QCSchema <==

--------------------------------------------------------------------------
{'driver': 'energy',
 'extras': {'psiapi': True, 'wfn_qcvars_only': True},
 'id': None,
 'keywords': {'DERTYPE': 'NONE',
              'E_CONVERGENCE': 1e-08,
              'FREEZE_CORE': 'TRUE',
              'PARENT_SYMMETRY': 'Cs(Z)',
              'REFERENCE': 'ROHF',
              'ROOTS_PER_IRREP': [0, 1],
              'SCF__D_CONVERGENCE': 1e-10,
              'SCF__E_CONVERGENCE': 1e-10,
              'function_kwargs': {}},
 'model': {'basis': 'aug-cc-pvdz', 'method': 'ccsd'},
 'molecule': {'atom_labels': ['', '', ''],
              'atomic_numbers': [1, 6, 9],
              'fix_com': True,
              'fix_orientation': True,
              'fragment_charges': [0.0],
              'fragment_multiplicities': [1],
              'fragments': [[0, 1, 2]],
              'geometry': [-1.4377096425522191, 2.7546771266537307, 0.0, 0.18580988818143995, 1.4235927632411103, 0.0,
                           -0.04109602710539146, -1.0453165749111648, 0.0],
              'mass_numbers': [1, 12, 19],
              'masses': [1.00782503223, 12.0, 18.99840316273],
              'molecular_charge': 0.0,
              'molecular_multiplicity': 1,
              'name': 'CFH',
              'provenance': {'creator': 'QCElemental',
                             'routine': 'qcelemental.molparse.from_string',
                             'version': 'v0.25.0'},
              'real': [True, True, True],
              'schema_name': 'qcschema_molecule',
              'schema_version': 2,
              'symbols': ['H', 'C', 'F'],
              'validated': True},
 'protocols': {'stdout': True},
 'provenance': {'creator': 'QCElemental', 'routine': 'qcelemental.models.results', 'version': 'v0.25.0'},
 'schema_name': 'qcschema_input',
 'schema_version': 1}
--------------------------------------------------------------------------

Scratch directory: /scratch/mdavis/PSI4_2022-08-19_10:38:07.952538582/

*** tstart() called on node4
*** at Fri Aug 19 10:38:59 2022

   => Loading Basis Set <=

    Name: AUG-CC-PVDZ
    Role: ORBITAL
    Keyword: BASIS
    atoms 1 entry H          line    40 file /home/mdavis/anaconda3/envs/p4env/share/psi4/basis/aug-cc-pvdz.gbs 
    atoms 2 entry C          line   182 file /home/mdavis/anaconda3/envs/p4env/share/psi4/basis/aug-cc-pvdz.gbs 
    atoms 3 entry F          line   290 file /home/mdavis/anaconda3/envs/p4env/share/psi4/basis/aug-cc-pvdz.gbs 


         ---------------------------------------------------------
                                   SCF
               by Justin Turney, Rob Parrish, Andy Simmonett
                          and Daniel G. A. Smith
                             ROHF Reference
                        4 Threads,   7629 MiB Core
         ---------------------------------------------------------

  ==> Geometry <==

    Molecular point group: cs
    Full point group: Cs

    Geometry (in Bohr), charge = 0, multiplicity = 1:

       Center              X                  Y                   Z               Mass       
    ------------   -----------------  -----------------  -----------------  -----------------
         H           -1.437709642552     2.754677126654     0.000000000000     1.007825032230
         C            0.185809888181     1.423592763241     0.000000000000    12.000000000000
         F           -0.041096027105    -1.045316574911     0.000000000000    18.998403162730

  Running in cs symmetry.

  Rotational constants: A =     23.79836  B =      1.14174  C =      1.08947 [cm^-1]
  Rotational constants: A = 713456.78184  B =  34228.46637  C =  32661.51301 [MHz]
  Nuclear repulsion =   26.861172234952420

  Charge       = 0
  Multiplicity = 1
  Electrons    = 16
  Nalpha       = 8
  Nbeta        = 8

  ==> Algorithm <==

  SCF Algorithm Type is PK.
  DIIS enabled.
  MOM disabled.
  Fractional occupation disabled.
  Guess Type is SAD.
  Energy threshold   = 1.00e-10
  Density threshold  = 1.00e-10
  Integral threshold = 1.00e-12

  ==> Primary Basis <==

  Basis Set: AUG-CC-PVDZ
    Blend: AUG-CC-PVDZ
    Number of shells: 23
    Number of basis functions: 55
    Number of Cartesian functions: 59
    Spherical Harmonics?: true
    Max angular momentum: 2

  ==> Integral Setup <==

  Using in-core PK algorithm.
   Calculation information:
      Number of atoms:                   3
      Number of AO shells:              23
      Number of primitives:             57
      Number of atomic orbitals:        59
      Number of basis functions:        55

      Integral cutoff                 1.00e-12
      Number of threads:                 4

  Performing in-core PK
  Using 2373140 doubles for integral storage.
  We computed 49959 shell quartets total.
  Whereas there are 38226 unique shell quartets.
    30.69 percent of shell quartets recomputed by reordering.

  ==> DiskJK: Disk-Based J/K Matrices <==

    J tasked:                  Yes
    K tasked:                  Yes
    wK tasked:                  No
    Memory [MiB]:             5722
    Schwarz Cutoff:          1E-12

    OpenMP threads:              4

  Minimum eigenvalue in the overlap matrix is 1.0471301004E-03.
  Reciprocal condition number of the overlap matrix is 1.9777881516E-04.
    Using symmetric orthogonalization.

  ==> Pre-Iterations <==

  SCF Guess: Superposition of Atomic Densities via on-the-fly atomic UHF (no occupation information).

   -------------------------
    Irrep   Nso     Nmo    
   -------------------------
     A'        39      39 
     A"        16      16 
   -------------------------
    Total      55      55
   -------------------------

  ==> Iterations <==

                        Total Energy        Delta E     RMS |[F,P]|

   @ROHF iter SAD:  -137.04534336953910   -1.37045e+02   0.00000e+00 
   @ROHF iter   1:  -137.73520043839693   -6.89857e-01   3.28427e-03 DIIS
   @ROHF iter   2:  -137.75291781452640   -1.77174e-02   1.24994e-03 DIIS
   @ROHF iter   3:  -137.75519638586260   -2.27857e-03   5.16697e-04 DIIS
   @ROHF iter   4:  -137.75567323109541   -4.76845e-04   1.05658e-04 DIIS
   @ROHF iter   5:  -137.75572971579194   -5.64847e-05   3.55659e-05 DIIS
   @ROHF iter   6:  -137.75573707199817   -7.35621e-06   1.03129e-05 DIIS
   @ROHF iter   7:  -137.75573758717309   -5.15175e-07   1.81166e-06 DIIS
   @ROHF iter   8:  -137.75573760148765   -1.43146e-08   3.86581e-07 DIIS
   @ROHF iter   9:  -137.75573760222227   -7.34616e-10   8.85071e-08 DIIS
   @ROHF iter  10:  -137.75573760225751   -3.52429e-11   1.67061e-08 DIIS
   @ROHF iter  11:  -137.75573760225871   -1.19371e-12   2.69992e-09 DIIS
   @ROHF iter  12:  -137.75573760225876   -5.68434e-14   6.72179e-10 DIIS
   @ROHF iter  13:  -137.75573760225879   -2.84217e-14   2.02227e-10 DIIS
   @ROHF iter  14:  -137.75573760225871    8.52651e-14   4.93681e-11 DIIS
  Energy and wave function converged.


  ==> Post-Iterations <==

    Orbital Energies [Eh]
    ---------------------

    Doubly Occupied:                                                      

       1Ap   -26.379116     2Ap   -11.376335     3Ap    -1.688177  
       4Ap    -0.926143     5Ap    -0.767176     1App   -0.719323  
       6Ap    -0.702252     7Ap    -0.378642  

    Singly Occupied:                                                      

    

    Virtual:                                                              

       8Ap     0.036443     2App    0.043305     9Ap     0.086853  
      10Ap     0.113332     3App    0.141862    11Ap     0.172173  
      12Ap     0.247393    13Ap     0.263600     4App    0.284346  
      14Ap     0.306543    15Ap     0.330535     5App    0.375537  
      16Ap     0.435383    17Ap     0.477401     6App    0.516830  
      18Ap     0.518787    19Ap     0.573271    20Ap     0.626411  
       7App    0.629508    21Ap     0.730719     8App    0.847605  
      22Ap     0.873941    23Ap     0.937442    24Ap     1.077777  
       9App    1.404554    25Ap     1.409526    26Ap     1.433924  
      10App    1.438507    11App    1.553782    27Ap     1.581198  
      28Ap     1.670977    12App    1.711682    29Ap     1.767446  
      30Ap     1.820366    13App    2.004578    31Ap     2.006769  
      14App    2.220678    32Ap     2.224687    33Ap     2.277420  
      34Ap     2.437289    35Ap     2.798015    36Ap     3.430260  
      15App    4.859081    37Ap     4.859400    16App    4.943189  
      38Ap     4.981493    39Ap     5.010461  

    Final Occupation by Irrep:
             Ap   App 
    DOCC [     7,    1 ]
    SOCC [     0,    0 ]

  @ROHF Final Energy:  -137.75573760225871

   => Energetics <=

    Nuclear Repulsion Energy =             26.8611722349524200
    One-Electron Energy =                -243.3594914347889642
    Two-Electron Energy =                  78.7425815975778534
    Total Energy =                       -137.7557376022587050

Computation Completed


Properties will be evaluated at   0.000000,   0.000000,   0.000000 [a0]

Properties computed using the SCF density matrix


 Multipole Moments:

 ------------------------------------------------------------------------------------
     Multipole            Electronic (a.u.)      Nuclear  (a.u.)        Total (a.u.)
 ------------------------------------------------------------------------------------

 L = 1.  Multiply by 2.5417464519 to convert [e a0] to [Debye]
 Dipole X            :         -0.0128100           -0.6927146           -0.7055245
 Dipole Y            :         -1.6491046            1.8883845            0.2392799
 Dipole Z            :          0.0000000            0.0000000            0.0000000
 Magnitude           :                                                    0.7449965

 ------------------------------------------------------------------------------------

*** tstop() called on node4 at Fri Aug 19 10:39:00 2022
Module time:
	user time   =       1.84 seconds =       0.03 minutes
	system time =       1.27 seconds =       0.02 minutes
	total time  =          1 seconds =       0.02 minutes
Total time:
	user time   =      25.49 seconds =       0.42 minutes
	system time =      30.93 seconds =       0.52 minutes
	total time  =         46 seconds =       0.77 minutes
 MINTS: Wrapper to libmints.
   by Justin Turney

   Calculation information:
      Number of threads:                 4
      Number of atoms:                   3
      Number of AO shells:              23
      Number of SO shells:              23
      Number of primitives:             57
      Number of atomic orbitals:        59
      Number of basis functions:        55

      Number of irreps:                  2
      Integral cutoff                 1.00e-12
      Number of functions per irrep: [  39   16 ]

 OEINTS: Overlap, kinetic, potential, dipole, and quadrupole integrals
         stored in file 35.

      Computing two-electron integrals...done
      Computed 584494 non-zero two-electron integrals.
        Stored in file 33.


*** tstart() called on node4
*** at Fri Aug 19 10:39:01 2022


	Wfn Parameters:
	--------------------
	Wavefunction         = CCSD
	Number of irreps     = 2
	Number of MOs        = 55
	Number of active MOs = 53
	AO-Basis             = NONE
	Semicanonical        = false
	Reference            = ROHF
	Print Level          = 1

	IRREP	# MOs	# FZDC	# DOCC	# SOCC	# VIRT	# FZVR
	-----	-----	------	------	------	------	------
	 Ap	   39	    2	    5	    0	    32	    0
	 App	   16	    0	    1	    0	    15	    0
	Transforming integrals...
	IWL integrals will be deleted.
	(OO|OO)...
	Presorting SO-basis two-electron integrals.
	Sorting File: SO Ints (nn|nn) nbuckets = 1
	Constructing frozen core operators
	Starting first half-transformation.
	Sorting half-transformed integrals.
	First half integral transformation complete.
	Starting second half-transformation.
	Two-electron integral transformation complete.
	(OO|OV)...
	Starting second half-transformation.
	Two-electron integral transformation complete.
	(OO|VV)...
	Starting second half-transformation.
	Two-electron integral transformation complete.
	(OV|OO)...
	Starting first half-transformation.
	Sorting half-transformed integrals.
	First half integral transformation complete.
	Starting second half-transformation.
	Two-electron integral transformation complete.
	(OV|OV)...
	Starting second half-transformation.
	Two-electron integral transformation complete.
	(OV|VV)...
	Starting second half-transformation.
	Two-electron integral transformation complete.
	(VV|OO)...
	Starting first half-transformation.
	Sorting half-transformed integrals.
	First half integral transformation complete.
	Starting second half-transformation.
	Two-electron integral transformation complete.
	(VV|OV)...
	Starting second half-transformation.
	Two-electron integral transformation complete.
	(VV|VV)...
	Starting second half-transformation.
	Two-electron integral transformation complete.
	Frozen core energy     =   -119.77085568471118

	Size of irrep 0 of <ab|cd> integrals:      1.560 (MW) /     12.480 (MB)
	Size of irrep 1 of <ab|cd> integrals:      0.922 (MW) /      7.373 (MB)
	Total:                                     2.482 (MW) /     19.853 (MB)

	Size of irrep 0 of <ia|bc> integrals:      0.219 (MW) /      1.749 (MB)
	Size of irrep 1 of <ia|bc> integrals:      0.103 (MW) /      0.822 (MB)
	Total:                                     0.321 (MW) /      2.570 (MB)

	Size of irrep 0 of tIjAb amplitudes:       0.032 (MW) /      0.260 (MB)
	Size of irrep 1 of tIjAb amplitudes:       0.010 (MW) /      0.077 (MB)
	Total:                                     0.042 (MW) /      0.337 (MB)

	Nuclear Rep. energy          =     26.86117223495242
	SCF energy                   =   -137.75573760225871
	One-electron energy          =    -79.32868173588535
	Two-electron (AA) energy     =      7.09232424385108
	Two-electron (BB) energy     =      7.09232424385108
	Two-electron (AB) energy     =     20.29797909568341
	Two-electron energy          =    -44.84605415249978
	Reference energy             =   -137.75573760225853

*** tstop() called on node4 at Fri Aug 19 10:39:02 2022
Module time:
	user time   =       0.36 seconds =       0.01 minutes
	system time =       0.36 seconds =       0.01 minutes
	total time  =          1 seconds =       0.02 minutes
Total time:
	user time   =      26.32 seconds =       0.44 minutes
	system time =      31.66 seconds =       0.53 minutes
	total time  =         48 seconds =       0.80 minutes
            **************************
            *                        *
            *        CCENERGY        *
            *                        *
            **************************

    Nuclear Rep. energy (wfn)     =   26.861172234952420
    SCF energy          (wfn)     = -137.755737602258705
    Reference energy    (file100) = -137.755737602258534

    Input parameters:
    -----------------
    Wave function   =     CCSD
    Reference wfn   =     ROHF
    Brueckner       =     No
    Memory (Mbytes) =     8000.0
    Maxiter         =     50
    R_Convergence   =     1.0e-07
    E_Convergence   =     1.0e-08
    Restart         =     Yes
    DIIS            =     Yes
    AO Basis        =     NONE
    ABCD            =     NEW
    Cache Level     =     2
    Cache Type      =     LOW
    Print Level     =     1
    Num. of threads =     4
    # Amps to Print =     10
    Print MP2 Amps? =     No
    Analyze T2 Amps =     No
    Print Pair Ener =     No
    Local CC        =     No
    SCS-MP2         =     False
    SCSN-MP2        =     False
    SCS-CCSD        =     False

                Solving CC Amplitude Equations
                ------------------------------
  Iter             Energy              RMS        T1Diag      D1Diag    New D1Diag    D2Diag
  ----     ---------------------    ---------   ----------  ----------  ----------   --------
     0        -0.318301839263561    0.000e+00    0.000000    0.000000    0.000000    0.000000
     1        -0.324541396577731    9.059e-02    0.014721    0.041476    0.041476    0.000000
     2        -0.335003297679565    3.286e-02    0.014339    0.040340    0.040340    0.000000
     3        -0.339240373929168    2.138e-02    0.018497    0.053211    0.053211    0.000000
     4        -0.339207537640914    7.775e-03    0.019725    0.057011    0.057011    0.000000
     5        -0.339236782500205    3.733e-03    0.020107    0.058231    0.058231    0.000000
     6        -0.339334882751821    1.653e-03    0.020090    0.058051    0.058051    0.000000
     7        -0.339339376440617    7.434e-04    0.020004    0.057670    0.057670    0.000000
     8        -0.339344062343540    3.152e-04    0.019956    0.057481    0.057481    0.000000
     9        -0.339350211723778    1.227e-04    0.019936    0.057401    0.057401    0.000000
    10        -0.339347821633903    4.559e-05    0.019929    0.057380    0.057380    0.000000
    11        -0.339348565584825    1.842e-05    0.019925    0.057371    0.057371    0.000000
    12        -0.339348784995592    6.449e-06    0.019925    0.057371    0.057371    0.000000
    13        -0.339348949516189    2.877e-06    0.019925    0.057371    0.057371    0.000000
    14        -0.339349030955477    1.184e-06    0.019925    0.057372    0.057372    0.000000
    15        -0.339349056002958    4.810e-07    0.019925    0.057372    0.057372    0.000000
    16        -0.339349059521932    2.432e-07    0.019925    0.057372    0.057372    0.000000
    17        -0.339349062510704    1.193e-07    0.019925    0.057372    0.057372    0.000000
    18        -0.339349063951928    6.669e-08    0.019925    0.057372    0.057372    0.000000

    Iterations converged.


    Largest TIA Amplitudes:
              5  32         0.0453808077
              5  33         0.0304600069
              4   5         0.0144397712
              4   6         0.0112373430
              5  34         0.0105848587
              2   5        -0.0099259344
              4   4         0.0096651700
              4   1         0.0088822614
              5  38         0.0082337374
              5  36         0.0081031028

    Largest Tia Amplitudes:
              5  32         0.0453808077
              5  33         0.0304600069
              4   5         0.0144397712
              4   6         0.0112373430
              5  34         0.0105848587
              2   5        -0.0099259344
              4   4         0.0096651700
              4   1         0.0088822614
              5  38         0.0082337374
              5  36         0.0081031028

    Largest TIJAB Amplitudes:
      5   3  32  11        -0.0097618582
      5   2  42  21        -0.0078610735
      5   3  42  22        -0.0077190388
      5   3  32   4        -0.0074693477
      5   3  32   9        -0.0074200510
      5   3  39  17         0.0073194445
      5   2  40  18        -0.0072310388
      5   2  39  17        -0.0071252483
      4   3  12   7         0.0069566228
      5   3  33  11        -0.0067739406

    Largest Tijab Amplitudes:
      5   3  32  11        -0.0097618582
      5   2  42  21        -0.0078610735
      5   3  42  22        -0.0077190388
      5   3  32   4        -0.0074693477
      5   3  32   9        -0.0074200510
      5   3  39  17         0.0073194445
      5   2  40  18        -0.0072310388
      5   2  39  17        -0.0071252483
      4   3  12   7         0.0069566228
      5   3  33  11        -0.0067739406

    Largest TIjAb Amplitudes:
      4   4  32  32        -0.0727704817
      4   4  32  33        -0.0547659871
      4   4  33  32        -0.0547659871
      4   4  33  33        -0.0411691138
      4   4   7   7        -0.0262162154
      5   5  32  32        -0.0261912649
      4   4  32  35        -0.0245124958
      4   4  35  32        -0.0245124958
      5   5  42  42        -0.0223304605
      4   4  33  35        -0.0187354714

    SCF energy       (wfn)                    = -137.755737602258705
    Reference energy (file100)                = -137.755737602258534

    Opposite-spin CCSD correlation energy     =   -0.267719820315974
    Same-spin CCSD correlation energy         =   -0.071629243741048
    Singles CCSD correlation energy           =    0.000000000105094
    CCSD correlation energy                   =   -0.339349063951928
      * CCSD total energy                     = -138.095086666210449


    Psi4 stopped on: Friday, 19 August 2022 10:39AM
    Psi4 wall time for execution: 0:00:19.82


    -----------------------------------------------------------------------
          Psi4: An Open-Source Ab Initio Electronic Structure Package
                               Psi4 1.6.1 release

                         Git: Rev {HEAD} 5b9f6e3 


    D. G. A. Smith, L. A. Burns, A. C. Simmonett, R. M. Parrish,
    M. C. Schieber, R. Galvelis, P. Kraus, H. Kruse, R. Di Remigio,
    A. Alenaizan, A. M. James, S. Lehtola, J. P. Misiewicz, M. Scheurer,
    R. A. Shaw, J. B. Schriber, Y. Xie, Z. L. Glick, D. A. Sirianni,
    J. S. O'Brien, J. M. Waldrop, A. Kumar, E. G. Hohenstein,
    B. P. Pritchard, B. R. Brooks, H. F. Schaefer III, A. Yu. Sokolov,
    K. Patkowski, A. E. DePrince III, U. Bozkaya, R. A. King,
    F. A. Evangelista, J. M. Turney, T. D. Crawford, C. D. Sherrill,
    J. Chem. Phys. 152(18) 184108 (2020). https://doi.org/10.1063/5.0006002

                            Additional Code Authors
    E. T. Seidl, C. L. Janssen, E. F. Valeev, M. L. Leininger,
    J. F. Gonthier, R. M. Richard, H. R. McAlexander, M. Saitow, X. Wang,
    P. Verma, M. H. Lechner, and A. Jiang

             Previous Authors, Complete List of Code Contributors,
                       and Citations for Specific Modules
    https://github.com/psi4/psi4/blob/master/codemeta.json
    https://github.com/psi4/psi4/graphs/contributors
    http://psicode.org/psi4manual/master/introduction.html#citing-psifour

    -----------------------------------------------------------------------


    Psi4 started on: Friday, 19 August 2022 10:38AM

    Process ID: 4509
    Host:       node4
    PSIDATADIR: /home/mdavis/anaconda3/envs/p4env/share/psi4
    Memory:     7.5 GiB
    Threads:    4
    
  ==> Input QCSchema <==

--------------------------------------------------------------------------
{'driver': 'energy',
 'extras': {'psiapi': True, 'wfn_qcvars_only': True},
 'id': None,
 'keywords': {'DERTYPE': 'NONE',
              'E_CONVERGENCE': 1e-08,
              'FREEZE_CORE': 'TRUE',
              'PARENT_SYMMETRY': 'Cs(Z)',
              'REFERENCE': 'ROHF',
              'ROOTS_PER_IRREP': [0, 1],
              'SCF__D_CONVERGENCE': 1e-10,
              'SCF__E_CONVERGENCE': 1e-10,
              'function_kwargs': {}},
 'model': {'basis': 'aug-cc-pvdz', 'method': 'ccsd'},
 'molecule': {'atom_labels': ['', '', ''],
              'atomic_numbers': [1, 6, 9],
              'fix_com': True,
              'fix_orientation': True,
              'fragment_charges': [0.0],
              'fragment_multiplicities': [1],
              'fragments': [[0, 1, 2]],
              'geometry': [-1.4422474354707318, 2.7502849663921167, 0.0, 0.1866134627279357, 1.4236750865008534, 0.0,
                           -0.04136287023005685, -1.0451355781236533, 0.0],
              'mass_numbers': [1, 12, 19],
              'masses': [1.00782503223, 12.0, 18.99840316273],
              'molecular_charge': 0.0,
              'molecular_multiplicity': 1,
              'name': 'CFH',
              'provenance': {'creator': 'QCElemental',
                             'routine': 'qcelemental.molparse.from_string',
                             'version': 'v0.25.0'},
              'real': [True, True, True],
              'schema_name': 'qcschema_molecule',
              'schema_version': 2,
              'symbols': ['H', 'C', 'F'],
              'validated': True},
 'protocols': {'stdout': True},
 'provenance': {'creator': 'QCElemental', 'routine': 'qcelemental.models.results', 'version': 'v0.25.0'},
 'schema_name': 'qcschema_input',
 'schema_version': 1}
--------------------------------------------------------------------------

Scratch directory: /scratch/mdavis/PSI4_2022-08-19_10:38:07.952538582/

*** tstart() called on node4
*** at Fri Aug 19 10:39:19 2022

   => Loading Basis Set <=

    Name: AUG-CC-PVDZ
    Role: ORBITAL
    Keyword: BASIS
    atoms 1 entry H          line    40 file /home/mdavis/anaconda3/envs/p4env/share/psi4/basis/aug-cc-pvdz.gbs 
    atoms 2 entry C          line   182 file /home/mdavis/anaconda3/envs/p4env/share/psi4/basis/aug-cc-pvdz.gbs 
    atoms 3 entry F          line   290 file /home/mdavis/anaconda3/envs/p4env/share/psi4/basis/aug-cc-pvdz.gbs 


         ---------------------------------------------------------
                                   SCF
               by Justin Turney, Rob Parrish, Andy Simmonett
                          and Daniel G. A. Smith
                             ROHF Reference
                        4 Threads,   7629 MiB Core
         ---------------------------------------------------------

  ==> Geometry <==

    Molecular point group: cs
    Full point group: Cs

    Geometry (in Bohr), charge = 0, multiplicity = 1:

       Center              X                  Y                   Z               Mass       
    ------------   -----------------  -----------------  -----------------  -----------------
         H           -1.442247435471     2.750284966392     0.000000000000     1.007825032230
         C            0.186613462728     1.423675086501     0.000000000000    12.000000000000
         F           -0.041362870230    -1.045135578124     0.000000000000    18.998403162730

  Running in cs symmetry.

  Rotational constants: A =     23.63784  B =      1.14236  C =      1.08970 [cm^-1]
  Rotational constants: A = 708644.62769  B =  34247.13421  C =  32668.34944 [MHz]
  Nuclear repulsion =   26.860944601017334

  Charge       = 0
  Multiplicity = 1
  Electrons    = 16
  Nalpha       = 8
  Nbeta        = 8

  ==> Algorithm <==

  SCF Algorithm Type is PK.
  DIIS enabled.
  MOM disabled.
  Fractional occupation disabled.
  Guess Type is SAD.
  Energy threshold   = 1.00e-10
  Density threshold  = 1.00e-10
  Integral threshold = 1.00e-12

  ==> Primary Basis <==

  Basis Set: AUG-CC-PVDZ
    Blend: AUG-CC-PVDZ
    Number of shells: 23
    Number of basis functions: 55
    Number of Cartesian functions: 59
    Spherical Harmonics?: true
    Max angular momentum: 2

  ==> Integral Setup <==

  Using in-core PK algorithm.
   Calculation information:
      Number of atoms:                   3
      Number of AO shells:              23
      Number of primitives:             57
      Number of atomic orbitals:        59
      Number of basis functions:        55

      Integral cutoff                 1.00e-12
      Number of threads:                 4

  Performing in-core PK
  Using 2373140 doubles for integral storage.
  We computed 49959 shell quartets total.
  Whereas there are 38226 unique shell quartets.
    30.69 percent of shell quartets recomputed by reordering.

  ==> DiskJK: Disk-Based J/K Matrices <==

    J tasked:                  Yes
    K tasked:                  Yes
    wK tasked:                  No
    Memory [MiB]:             5722
    Schwarz Cutoff:          1E-12

    OpenMP threads:              4

  Minimum eigenvalue in the overlap matrix is 1.0486026374E-03.
  Reciprocal condition number of the overlap matrix is 1.9803505246E-04.
    Using symmetric orthogonalization.

  ==> Pre-Iterations <==

  SCF Guess: Superposition of Atomic Densities via on-the-fly atomic UHF (no occupation information).

   -------------------------
    Irrep   Nso     Nmo    
   -------------------------
     A'        39      39 
     A"        16      16 
   -------------------------
    Total      55      55
   -------------------------

  ==> Iterations <==

                        Total Energy        Delta E     RMS |[F,P]|

   @ROHF iter SAD:  -137.04527445343948   -1.37045e+02   0.00000e+00 
   @ROHF iter   1:  -137.73556833707158   -6.90294e-01   3.28455e-03 DIIS
   @ROHF iter   2:  -137.75327877916152   -1.77104e-02   1.25126e-03 DIIS
   @ROHF iter   3:  -137.75555938817573   -2.28061e-03   5.16492e-04 DIIS
   @ROHF iter   4:  -137.75603545781240   -4.76070e-04   1.05453e-04 DIIS
   @ROHF iter   5:  -137.75609163353568   -5.61757e-05   3.54857e-05 DIIS
   @ROHF iter   6:  -137.75609894306132   -7.30953e-06   1.03018e-05 DIIS
   @ROHF iter   7:  -137.75609945628972   -5.13228e-07   1.80745e-06 DIIS
   @ROHF iter   8:  -137.75609947052760   -1.42379e-08   3.84092e-07 DIIS
   @ROHF iter   9:  -137.75609947125338   -7.25777e-10   8.74829e-08 DIIS
   @ROHF iter  10:  -137.75609947128768   -3.43050e-11   1.64524e-08 DIIS
   @ROHF iter  11:  -137.75609947128922   -1.53477e-12   2.54842e-09 DIIS
   @ROHF iter  12:  -137.75609947128905    1.70530e-13   5.67051e-10 DIIS
   @ROHF iter  13:  -137.75609947128902    2.84217e-14   1.68012e-10 DIIS
   @ROHF iter  14:  -137.75609947128902    0.00000e+00   4.66007e-11 DIIS
  Energy and wave function converged.


  ==> Post-Iterations <==

    Orbital Energies [Eh]
    ---------------------

    Doubly Occupied:                                                      

       1Ap   -26.379066     2Ap   -11.376471     3Ap    -1.688187  
       4Ap    -0.926155     5Ap    -0.767107     1App   -0.719303  
       6Ap    -0.701916     7Ap    -0.378995  

    Singly Occupied:                                                      

    

    Virtual:                                                              

       8Ap     0.036460     2App    0.043311     9Ap     0.086885  
      10Ap     0.113323     3App    0.141858    11Ap     0.172184  
      12Ap     0.247540    13Ap     0.263546     4App    0.284382  
      14Ap     0.306540    15Ap     0.330259     5App    0.375366  
      16Ap     0.435670    17Ap     0.477533     6App    0.517207  
      18Ap     0.518690    19Ap     0.573568    20Ap     0.626406  
       7App    0.629124    21Ap     0.730206     8App    0.847636  
      22Ap     0.873965    23Ap     0.936700    24Ap     1.077571  
       9App    1.404638    25Ap     1.409489    26Ap     1.434039  
      10App    1.438439    11App    1.553434    27Ap     1.580806  
      28Ap     1.672062    12App    1.711536    29Ap     1.767460  
      30Ap     1.820800    13App    2.005496    31Ap     2.006696  
      14App    2.219443    32Ap     2.223223    33Ap     2.277340  
      34Ap     2.436696    35Ap     2.795377    36Ap     3.429896  
      15App    4.859020    37Ap     4.859407    16App    4.943202  
      38Ap     4.981493    39Ap     5.010277  

    Final Occupation by Irrep:
             Ap   App 
    DOCC [     7,    1 ]
    SOCC [     0,    0 ]

  @ROHF Final Energy:  -137.75609947128902

   => Energetics <=

    Nuclear Repulsion Energy =             26.8609446010173336
    One-Electron Energy =                -243.3596915749288883
    Two-Electron Energy =                  78.7426475026225319
    Total Energy =                       -137.7560994712890192

Computation Completed


Properties will be evaluated at   0.000000,   0.000000,   0.000000 [a0]

Properties computed using the SCF density matrix


 Multipole Moments:

 ------------------------------------------------------------------------------------
     Multipole            Electronic (a.u.)      Nuclear  (a.u.)        Total (a.u.)
 ------------------------------------------------------------------------------------

 L = 1.  Multiply by 2.5417464519 to convert [e a0] to [Debye]
 Dipole X            :         -0.0097799           -0.6948325           -0.7046124
 Dipole Y            :         -1.6478493            1.8861153            0.2382660
 Dipole Z            :          0.0000000            0.0000000            0.0000000
 Magnitude           :                                                    0.7438073

 ------------------------------------------------------------------------------------

*** tstop() called on node4 at Fri Aug 19 10:39:21 2022
Module time:
	user time   =       2.07 seconds =       0.03 minutes
	system time =       1.43 seconds =       0.02 minutes
	total time  =          2 seconds =       0.03 minutes
Total time:
	user time   =      37.36 seconds =       0.62 minutes
	system time =      45.81 seconds =       0.76 minutes
	total time  =         67 seconds =       1.12 minutes
 MINTS: Wrapper to libmints.
   by Justin Turney

   Calculation information:
      Number of threads:                 4
      Number of atoms:                   3
      Number of AO shells:              23
      Number of SO shells:              23
      Number of primitives:             57
      Number of atomic orbitals:        59
      Number of basis functions:        55

      Number of irreps:                  2
      Integral cutoff                 1.00e-12
      Number of functions per irrep: [  39   16 ]

 OEINTS: Overlap, kinetic, potential, dipole, and quadrupole integrals
         stored in file 35.

      Computing two-electron integrals...done
      Computed 584494 non-zero two-electron integrals.
[...]

       1Ap   -26.377362     2Ap   -11.373995     3Ap    -1.686191  
       4Ap    -0.929151     5Ap    -0.768549     1App   -0.717611  
       6Ap    -0.702865     7Ap    -0.382398  

    Singly Occupied:                                                      

    

    Virtual:                                                              

       8Ap     0.036306     2App    0.043206     9Ap     0.087286  
      10Ap     0.112874     3App    0.141680    11Ap     0.172789  
      12Ap     0.249021    13Ap     0.266515     4App    0.284923  
      14Ap     0.307873    15Ap     0.329608     5App    0.375781  
      16Ap     0.440183    17Ap     0.477517    18Ap     0.517475  
       6App    0.520441    19Ap     0.575893     7App    0.626639  
      20Ap     0.632563    21Ap     0.726617     8App    0.849971  
      22Ap     0.878401    23Ap     0.937599    24Ap     1.078946  
       9App    1.406098    25Ap     1.412044    26Ap     1.433427  
      10App    1.438266    11App    1.551940    27Ap     1.577044  
      28Ap     1.683789    12App    1.710484    29Ap     1.766781  
      30Ap     1.827749    13App    2.018444    31Ap     2.021049  
      14App    2.221876    32Ap     2.234865    33Ap     2.279717  
      34Ap     2.456719    35Ap     2.829907    36Ap     3.429389  
      15App    4.860136    37Ap     4.861032    16App    4.944842  
      38Ap     4.982840    39Ap     5.010697  

    Final Occupation by Irrep:
             Ap   App 
    DOCC [     7,    1 ]
    SOCC [     0,    0 ]

  @ROHF Final Energy:  -137.75866509419350

   => Energetics <=

    Nuclear Repulsion Energy =             26.9382838322091516
    One-Electron Energy =                -243.5176571010985072
    Two-Electron Energy =                  78.8207081746958522
    Total Energy =                       -137.7586650941935034

Computation Completed


Properties will be evaluated at   0.000000,   0.000000,   0.000000 [a0]

Properties computed using the SCF density matrix


 Multipole Moments:

 ------------------------------------------------------------------------------------
     Multipole            Electronic (a.u.)      Nuclear  (a.u.)        Total (a.u.)
 ------------------------------------------------------------------------------------

 L = 1.  Multiply by 2.5417464519 to convert [e a0] to [Debye]
 Dipole X            :         -0.0335857           -0.6773913           -0.7109770
 Dipole Y            :         -1.6106165            1.8549709            0.2443544
 Dipole Z            :          0.0000000            0.0000000            0.0000000
 Magnitude           :                                                    0.7517961

 ------------------------------------------------------------------------------------

*** tstop() called on node4 at Fri Aug 19 10:56:35 2022
Module time:
	user time   =       1.87 seconds =       0.03 minutes
	system time =       1.16 seconds =       0.02 minutes
	total time  =          2 seconds =       0.03 minutes
Total time:
	user time   =     571.47 seconds =       9.52 minutes
	system time =     728.06 seconds =      12.13 minutes
	total time  =       1101 seconds =      18.35 minutes
 MINTS: Wrapper to libmints.
   by Justin Turney

   Calculation information:
      Number of threads:                 4
      Number of atoms:                   3
      Number of AO shells:              23
      Number of SO shells:              23
      Number of primitives:             57
      Number of atomic orbitals:        59
      Number of basis functions:        55

      Number of irreps:                  2
      Integral cutoff                 1.00e-12
      Number of functions per irrep: [  39   16 ]

 OEINTS: Overlap, kinetic, potential, dipole, and quadrupole integrals
         stored in file 35.

      Computing two-electron integrals...done
      Computed 584494 non-zero two-electron integrals.
        Stored in file 33.


*** tstart() called on node4
*** at Fri Aug 19 10:56:35 2022


	Wfn Parameters:
	--------------------
	Wavefunction         = CCSD
	Number of irreps     = 2
	Number of MOs        = 55
	Number of active MOs = 53
	AO-Basis             = NONE
	Semicanonical        = false
	Reference            = ROHF
	Print Level          = 1

	IRREP	# MOs	# FZDC	# DOCC	# SOCC	# VIRT	# FZVR
	-----	-----	------	------	------	------	------
	 Ap	   39	    2	    5	    0	    32	    0
	 App	   16	    0	    1	    0	    15	    0
	Transforming integrals...
	IWL integrals will be deleted.
	(OO|OO)...
	Presorting SO-basis two-electron integrals.
	Sorting File: SO Ints (nn|nn) nbuckets = 1
	Constructing frozen core operators
	Starting first half-transformation.
	Sorting half-transformed integrals.
	First half integral transformation complete.
	Starting second half-transformation.
	Two-electron integral transformation complete.
	(OO|OV)...
	Starting second half-transformation.
	Two-electron integral transformation complete.
	(OO|VV)...
	Starting second half-transformation.
	Two-electron integral transformation complete.
	(OV|OO)...
	Starting first half-transformation.
	Sorting half-transformed integrals.
	First half integral transformation complete.
	Starting second half-transformation.
	Two-electron integral transformation complete.
	(OV|OV)...
	Starting second half-transformation.
	Two-electron integral transformation complete.
	(OV|VV)...
	Starting second half-transformation.
	Two-electron integral transformation complete.
	(VV|OO)...
	Starting first half-transformation.
	Sorting half-transformed integrals.
	First half integral transformation complete.
	Starting second half-transformation.
	Two-electron integral transformation complete.
	(VV|OV)...
	Starting second half-transformation.
	Two-electron integral transformation complete.
	(VV|VV)...
	Starting second half-transformation.
	Two-electron integral transformation complete.
	Frozen core energy     =   -119.78749273103475

	Size of irrep 0 of <ab|cd> integrals:      1.560 (MW) /     12.480 (MB)
	Size of irrep 1 of <ab|cd> integrals:      0.922 (MW) /      7.373 (MB)
	Total:                                     2.482 (MW) /     19.853 (MB)

	Size of irrep 0 of <ia|bc> integrals:      0.219 (MW) /      1.749 (MB)
	Size of irrep 1 of <ia|bc> integrals:      0.103 (MW) /      0.822 (MB)
	Total:                                     0.321 (MW) /      2.570 (MB)

	Size of irrep 0 of tIjAb amplitudes:       0.032 (MW) /      0.260 (MB)
	Size of irrep 1 of tIjAb amplitudes:       0.010 (MW) /      0.077 (MB)
	Total:                                     0.042 (MW) /      0.337 (MB)

	Nuclear Rep. energy          =     26.93828383220915
	SCF energy                   =   -137.75866509419350
	One-electron energy          =    -79.44538513658412
	Two-electron (AA) energy     =      7.10314019628432
	Two-electron (BB) energy     =      7.10314019628432
	Two-electron (AB) energy     =     20.32964854864768
	Two-electron energy          =    -44.90945619536782
	Reference energy             =   -137.75866509419342

*** tstop() called on node4 at Fri Aug 19 10:56:36 2022
Module time:
	user time   =       0.34 seconds =       0.01 minutes
	system time =       0.19 seconds =       0.00 minutes
	total time  =          1 seconds =       0.02 minutes
Total time:
	user time   =     572.36 seconds =       9.54 minutes
	system time =     728.56 seconds =      12.14 minutes
	total time  =       1102 seconds =      18.37 minutes
            **************************
            *                        *
            *        CCENERGY        *
            *                        *
            **************************

    Nuclear Rep. energy (wfn)     =   26.938283832209152
    SCF energy          (wfn)     = -137.758665094193503
    Reference energy    (file100) = -137.758665094193418

    Input parameters:
    -----------------
    Wave function   =     CCSD
    Reference wfn   =     ROHF
    Brueckner       =     No
    Memory (Mbytes) =     8000.0
    Maxiter         =     50
    R_Convergence   =     1.0e-07
    E_Convergence   =     1.0e-08
    Restart         =     Yes
    DIIS            =     Yes
    AO Basis        =     NONE
    ABCD            =     NEW
    Cache Level     =     2
    Cache Type      =     LOW
    Print Level     =     1
    Num. of threads =     4
    # Amps to Print =     10
    Print MP2 Amps? =     No
    Analyze T2 Amps =     No
    Print Pair Ener =     No
    Local CC        =     No
    SCS-MP2         =     False
    SCSN-MP2        =     False
    SCS-CCSD        =     False

                Solving CC Amplitude Equations
                ------------------------------
  Iter             Energy              RMS        T1Diag      D1Diag    New D1Diag    D2Diag
  ----     ---------------------    ---------   ----------  ----------  ----------   --------
     0        -0.317749442293293    0.000e+00    0.000000    0.000000    0.000000    0.000000
     1        -0.323944172930671    9.025e-02    0.014693    0.041563    0.041563    0.000000
     2        -0.334337885400147    3.260e-02    0.014310    0.040453    0.040453    0.000000
     3        -0.338529652577735    2.122e-02    0.018447    0.053380    0.053380    0.000000
     4        -0.338484946048713    7.632e-03    0.019660    0.057207    0.057207    0.000000
     5        -0.338509300913843    3.620e-03    0.020027    0.058447    0.058447    0.000000
     6        -0.338603869094133    1.592e-03    0.020004    0.058277    0.058277    0.000000
     7        -0.338607780827129    7.106e-04    0.019919    0.057912    0.057912    0.000000
     8        -0.338612615829913    2.992e-04    0.019873    0.057729    0.057729    0.000000
     9        -0.338618279797017    1.154e-04    0.019854    0.057652    0.057652    0.000000
    10        -0.338616029780245    4.239e-05    0.019847    0.057631    0.057631    0.000000
    11        -0.338616779604446    1.686e-05    0.019844    0.057622    0.057622    0.000000
    12        -0.338616991058685    5.778e-06    0.019844    0.057622    0.057622    0.000000
    13        -0.338617148387640    2.553e-06    0.019844    0.057622    0.057622    0.000000
    14        -0.338617223123631    1.049e-06    0.019844    0.057622    0.057622    0.000000
    15        -0.338617245301448    4.258e-07    0.019844    0.057622    0.057622    0.000000
    16        -0.338617248493372    2.127e-07    0.019844    0.057622    0.057622    0.000000
    17        -0.338617251054199    1.035e-07    0.019844    0.057623    0.057623    0.000000
    18        -0.338617252288795    5.768e-08    0.019844    0.057623    0.057623    0.000000

    Iterations converged.


    Largest TIA Amplitudes:
              5  32         0.0456412242
              5  33         0.0305507075
              4   5         0.0142287513
              4   6         0.0118581375
              5  34         0.0104983249
              2   5        -0.0096964138
              5  36         0.0083054773
              4   1        -0.0082068243
              5  38         0.0081581240
              3   5         0.0071927127

    Largest Tia Amplitudes:
              5  32         0.0456412242
              5  33         0.0305507075
              4   5         0.0142287513
              4   6         0.0118581375
              5  34         0.0104983249
              2   5        -0.0096964138
              5  36         0.0083054773
              4   1        -0.0082068243
              5  38         0.0081581240
              3   5         0.0071927127

    Largest TIJAB Amplitudes:
      5   3  32  11        -0.0091681462
      5   3  42  22        -0.0079593551
      5   3  39  17         0.0076469125
      5   2  42  21        -0.0076014418
      5   3  32   9        -0.0074251933
      5   3  32  12        -0.0072400882
      5   2  40  18        -0.0069763289
      5   2  39  17        -0.0068051379
      5   3  32   5        -0.0066955348
      4   3  14   7         0.0065230499

    Largest Tijab Amplitudes:
      5   3  32  11        -0.0091681462
      5   3  42  22        -0.0079593551
      5   3  39  17         0.0076469125
      5   2  42  21        -0.0076014418
      5   3  32   9        -0.0074251933
      5   3  32  12        -0.0072400882
      5   2  40  18        -0.0069763289
      5   2  39  17        -0.0068051379
      5   3  32   5        -0.0066955348
      4   3  14   7         0.0065230499

    Largest TIjAb Amplitudes:
      4   4  32  32        -0.0724527302
      4   4  32  33        -0.0545479210
      4   4  33  32        -0.0545479210
      4   4  33  33        -0.0410527994
      5   5  32  32        -0.0263628398
      4   4   7   7        -0.0261811104
      4   4  32  35        -0.0248089374
      4   4  35  32        -0.0248089374
      5   5  42  42        -0.0226356257
      4   4  33  35        -0.0189141117

    SCF energy       (wfn)                    = -137.758665094193503
    Reference energy (file100)                = -137.758665094193418

    Opposite-spin CCSD correlation energy     =   -0.267051235201048
    Same-spin CCSD correlation energy         =   -0.071566017007936
    Singles CCSD correlation energy           =   -0.000000000079812
    CCSD correlation energy                   =   -0.338617252288795
      * CCSD total energy                     = -138.097282346482217


			**************************
			*                        *
			*         CCHBAR         *
			*                        *
			**************************


	**********************************************************
	*  CCEOM: An Equation of Motion Coupled Cluster Program  *
	**********************************************************

	Nuclear Rep. energy (wfn)     =   26.938283832209152
	SCF energy          (wfn)     = -137.758665094193503
	Reference energy    (file100) = -137.758665094193418
	CCSD energy         (file100) =   -0.338617252288795

	Input parameters:
	-----------------
	Reference wfn   =    ROHF
	Reference EOM wfn=    ROHF
	Memory (Mbytes) =  8000.0
	ABCD            =     NEW
	Cache Level     =    2
	Cache Type      =     LRU
	Num. of threads =     4
	Local CC        =     No


	CCEOM parameters:
	-----------------
	States sought per irrep     = Ap 0, App 1,
	Max. number of iterations   =    80
	Vectors stored per root     =    12
	Print HbarSS iterations?    =     0
	Excitation range for HBarSS =     2
	Eigenvalue tolerance        = 1.0e-08
	Eigenvalue toleranceSS      = 1.0e-06
	Residual vector tolerance   = 1.0e-06
	Residual vector toleranceSS = 1.0e-06
	Complex tolerance           = 1.0e-12
	Root for properties         =     1
	Sym of state for properties =    App
	Guess vectors taken from    = SINGLES
	Restart EOM CC3             = NO
	Collapse with last vector   = YES



Fae   dot Fae   total  404.9748870556
Fmi   dot Fmi   total   12.3094786590
Fme   dot Fme   total    0.0008516798
WMBIJ dot WMBIJ total    0.7842840353
Wmbij dot Wmbij total    0.7842840353
WMbIj dot WMbIj total    1.0934854372
WmBiJ dot WmBiJ total    1.0934854372
Symmetry of ground state: Ap
Symmetry of excited state: App
Symmetry of right eigenvector: App
Obtaining initial guess from singles-singles block of Hbar...Done.

Iter=1    L=1     Root    EOM Energy     Delta E   Res. Norm    Conv?
                     1   0.0621791448   6.22e-02    3.70e-01      N
Iter=2    L=2     Root    EOM Energy     Delta E   Res. Norm    Conv?
                     1   0.0069305045  -5.52e-02    7.99e-02      N
Iter=3    L=3     Root    EOM Energy     Delta E   Res. Norm    Conv?
                     1   0.0036562613  -3.27e-03    3.86e-02      N
Iter=4    L=4     Root    EOM Energy     Delta E   Res. Norm    Conv?
                     1   0.0028454584  -8.11e-04    1.50e-02      N
Iter=5    L=5     Root    EOM Energy     Delta E   Res. Norm    Conv?
                     1   0.0026663868  -1.79e-04    6.06e-03      N
Iter=6    L=6     Root    EOM Energy     Delta E   Res. Norm    Conv?
                     1   0.0026576785  -8.71e-06    2.10e-03      N
Iter=7    L=7     Root    EOM Energy     Delta E   Res. Norm    Conv?
                     1   0.0026501159  -7.56e-06    7.73e-04      N
Iter=8    L=8     Root    EOM Energy     Delta E   Res. Norm    Conv?
                     1   0.0026468569  -3.26e-06    2.89e-04      N
Iter=9    L=9     Root    EOM Energy     Delta E   Res. Norm    Conv?
                     1   0.0026464261  -4.31e-07    1.12e-04      N
Iter=10   L=10    Root    EOM Energy     Delta E   Res. Norm    Conv?
                     1   0.0026462944  -1.32e-07    3.96e-05      N
Iter=11   L=11    Root    EOM Energy     Delta E   Res. Norm    Conv?
                     1   0.0026461967  -9.77e-08    1.51e-05      N
Iter=12   L=12    Root    EOM Energy     Delta E   Res. Norm    Conv?
                     1   0.0026461798  -1.69e-08    5.04e-06      N
Iter=13   L=2     Root    EOM Energy     Delta E   Res. Norm    Conv?
                     1   0.0026461798   4.34e-19    5.04e-06      N
Iter=14   L=3     Root    EOM Energy     Delta E   Res. Norm    Conv?
                     1   0.0026461785  -1.34e-09    1.70e-06      N
Iter=15   L=4     Root    EOM Energy     Delta E   Res. Norm    Conv?
                     1   0.0026461791   6.52e-10    6.60e-07      Y
Collapsing to only 1 vector(s).

Procedure converged for 1 root(s).
Energy written to CC_INFO:Etot -138.0946361674
States per irrep written to CC_INFO.
<R|R> =   1.0000000000000002
EOM CCSD R0 for root 0 =   0.00000000000

Final Energetic Summary for Converged Roots of Irrep App
                     Excitation Energy              Total Energy
                (eV)     (cm^-1)     (au)             (au)
EOM State 1      0.072      580.8   0.0026461791  -138.094636167372

Largest components of excited wave function #1:
 RIA (libdpd indices) : (cscf notation)
         4 >   0      :       7ap >   2app :    0.5689582895
         4 >   1      :       7ap >   3app :    0.3788157199
         4 >   6      :       7ap >   8app :    0.0831011184
         4 >   3      :       7ap >   5app :    0.0751154412
         4 >   4      :       7ap >   6app :    0.0311510710
 Ria (libdpd indices) : (cscf notation)
         4 >   0      :       7ap >   2app :   -0.5689586196
         4 >   1      :       7ap >   3app :   -0.3788159266
         4 >   6      :       7ap >   8app :   -0.0831011604
         4 >   3      :       7ap >   5app :   -0.0751154601
         4 >   4      :       7ap >   6app :   -0.0311511049
 RIjAb (libdpd indices)     : (cscf notation)
        4   4 >   2   0     :    7ap    7ap >   10ap   2app :   -0.0204851554
        4   4 >   0   2     :    7ap    7ap >   2app   10ap :    0.0204851506
        4   4 >   7   0     :    7ap    7ap >   15ap   2app :    0.0200644487
        4   4 >   0   7     :    7ap    7ap >   2app   15ap :   -0.0200644394
        4   4 >   3   0     :    7ap    7ap >   11ap   2app :    0.0142667172
 RIJAB (libdpd indices)     : (cscf notation)
        4   2 >   0   7     :    7ap    5ap >   2app   15ap :   -0.0078265275
        3   2 >   0  11     :    6ap    5ap >   2app   19ap :   -0.0077808694
        4   1 >   0   9     :    7ap    4ap >   2app   17ap :   -0.0066560325
        4   1 >   0  19     :    7ap    4ap >   2app   27ap :   -0.0065474466
        3   2 >   0   7     :    6ap    5ap >   2app   15ap :    0.0064249668
 Rijab (libdpd indices)     : (cscf notation)
        4   2 >   0   7     :    7ap    5ap >   2app   15ap :    0.0078265329
        3   2 >   0  11     :    6ap    5ap >   2app   19ap :    0.0077808752
        4   1 >   0   9     :    7ap    4ap >   2app   17ap :    0.0066560362
        4   1 >   0  19     :    7ap    4ap >   2app   27ap :    0.0065474506
        3   2 >   0   7     :    6ap    5ap >   2app   15ap :   -0.0064249716

	Putting into environment energy for root of R irrep 2 and root 1.
	Putting into environment CURRENT ENERGY:             -138.0946361674

	Total # of sigma evaluations: 14

    Psi4 stopped on: Friday, 19 August 2022 10:56AM
    Psi4 wall time for execution: 0:00:19.32

