
Host: node4

Timers On : Fri Aug 19 10:19:52 2022
Timers Off: Fri Aug 19 10:19:53 2022

Wall Time:        1.62 seconds

                                                       Time (seconds)
Module                                       User      System        Wall        Calls

--------------------------------------------------------------------------------------

**************************************************************************************

Host: node4

Timers On : Fri Aug 19 10:38:12 2022
Timers Off: Fri Aug 19 10:38:13 2022

Wall Time:        1.40 seconds

                                                       Time (seconds)
Module                                       User      System        Wall        Calls

--------------------------------------------------------------------------------------

**************************************************************************************
